<PP_INFO>
Generated using APE Version-1.x
Author: Unknown Generation date: 2011/01/21
Pseudopotential for: F
Exchange-correlation: Perdew-Wang LDA
    0        The Pseudo was generated with a Non-Relativistic Calculation
State   n   l    occ     rc         ev
2s      2   0    2.00    0.85     -1.086683
2p      2   1    5.00    0.77     -0.415451
</PP_INFO>
<PP_HEADER>
   0                   Version Number
  F                    Element
   NC                  Norm - Conserving pseudopotential
    T                  Nonlinear Core Correction
   SLA  PW  NOGX  NOGC Exchange-Correlation functional
    7.00000000000      Z valence
    0.00000000000      Total energy
  0.0000000  0.0000000 Suggested cutoff for wfc and rho
    0                  Max angular momentum component
  600                  Number of points in mesh
    2    1             Number of Wavefunctions, Number of Projectors
 Wavefunctions         nl  l   occ
                       2s  0  2.00
                       2p  1  5.00
</PP_HEADER>
<PP_MESH>
  <PP_R>
  2.99999992421E-05  3.07563268754E-05  3.15317222255E-05  3.23266660070E-05
  3.31416510540E-05  3.39771826253E-05  3.48337787176E-05  3.57119703870E-05
  3.66123020778E-05  3.75353319604E-05  3.84816322772E-05  3.94517896972E-05
  4.04464056800E-05  4.14660968485E-05  4.25114953713E-05  4.35832493544E-05
  4.46820232433E-05  4.58084982347E-05  4.69633726990E-05  4.81473626131E-05
  4.93612020042E-05  5.06056434052E-05  5.18814583210E-05  5.31894377068E-05
  5.45303924586E-05  5.59051539156E-05  5.73145743762E-05  5.87595276257E-05
  6.02409094785E-05  6.17596383333E-05  6.33166557424E-05  6.49129269955E-05
  6.65494417183E-05  6.82272144857E-05  6.99472854511E-05  7.17107209909E-05
  7.35186143662E-05  7.53720863999E-05  7.72722861719E-05  7.92203917318E-05
  8.12176108284E-05  8.32651816594E-05  8.53643736384E-05  8.75164881821E-05
  8.97228595171E-05  9.19848555073E-05  9.43038785013E-05  9.66813662025E-05
  9.91187925602E-05  1.01617668683E-04  1.04179543776E-04  1.06806006102E-04
  1.09498683964E-04  1.12259246716E-04  1.15089405801E-04  1.17990915804E-04
  1.20965575549E-04  1.24015229208E-04  1.27141767447E-04  1.30347128597E-04
  1.33633299856E-04  1.37002318521E-04  1.40456273252E-04  1.43997305366E-04
  1.47627610163E-04  1.51349438291E-04  1.55165097136E-04  1.59076952257E-04
  1.63087428852E-04  1.67199013259E-04  1.71414254498E-04  1.75735765855E-04
  1.80166226496E-04  1.84708383133E-04  1.89365051726E-04  1.94139119227E-04
  1.99033545369E-04  2.04051364506E-04  2.09195687489E-04  2.14469703596E-04
  2.19876682510E-04  2.25419976347E-04  2.31103021731E-04  2.36929341927E-04
  2.42902549025E-04  2.49026346181E-04  2.55304529907E-04  2.61740992432E-04
  2.68339724110E-04  2.75104815896E-04  2.82040461881E-04  2.89150961895E-04
  2.96440724168E-04  3.03914268068E-04  3.11576226897E-04  3.19431350772E-04
  3.27484509559E-04  3.35740695903E-04  3.44205028314E-04  3.52882754348E-04
  3.61779253853E-04  3.70900042311E-04  3.80250774253E-04  3.89837246767E-04
  3.99665403089E-04  4.09741336291E-04  4.20071293056E-04  4.30661677553E-04
  4.41519055405E-04  4.52650157760E-04  4.64061885466E-04  4.75761313346E-04
  4.87755694586E-04  5.00052465234E-04  5.12659248804E-04  5.25583861008E-04
  5.38834314599E-04  5.52418824338E-04  5.66345812090E-04  5.80623912039E-04
  5.95261976050E-04  6.10269079146E-04  6.25654525145E-04  6.41427852418E-04
  6.57598839811E-04  6.74177512702E-04  6.91174149218E-04  7.08599286607E-04
  7.26463727771E-04  7.44778547963E-04  7.63555101654E-04  7.82805029570E-04
  8.02540265913E-04  8.22773045755E-04  8.43515912627E-04  8.64781726292E-04
  8.86583670721E-04  9.08935262264E-04  9.31850358034E-04  9.55343164489E-04
  9.79428246250E-04  1.00412053512E-03  1.02943533936E-03  1.05538835314E-03
  1.08199566632E-03  1.10927377440E-03  1.13723958872E-03  1.16591044699E-03
  1.19530412404E-03  1.22543884277E-03  1.25633328554E-03  1.28800660569E-03
  1.32047843943E-03  1.35376891804E-03  1.38789868029E-03  1.42288888531E-03
  1.45876122565E-03  1.49553794076E-03  1.53324183075E-03  1.57189627057E-03
  1.61152522444E-03  1.65215326076E-03  1.69380556733E-03  1.73650796694E-03
  1.78028693341E-03  1.82516960797E-03  1.87118381613E-03  1.91835808489E-03
  1.96672166045E-03  2.01630452633E-03  2.06713742196E-03  2.11925186174E-03
  2.17268015459E-03  2.22745542395E-03  2.28361162833E-03  2.34118358239E-03
  2.40020697848E-03  2.46071840879E-03  2.52275538803E-03  2.58635637671E-03
  2.65156080493E-03  2.71840909688E-03  2.78694269590E-03  2.85720409012E-03
  2.92923683884E-03  3.00308559956E-03  3.07879615561E-03  3.15641544456E-03
  3.23599158733E-03  3.31757391801E-03  3.40121301445E-03  3.48696072960E-03
  3.57487022368E-03  3.66499599714E-03  3.75739392443E-03  3.85212128863E-03
  3.94923681699E-03  4.04880071734E-03  4.15087471539E-03  4.25552209302E-03
  4.36280772749E-03  4.47279813170E-03  4.58556149539E-03  4.70116772741E-03
  4.81968849910E-03  4.94119728869E-03  5.06576942687E-03  5.19348214347E-03
  5.32441461538E-03  5.45864801560E-03  5.59626556356E-03  5.73735257675E-03
  5.88199652359E-03  6.03028707766E-03  6.18231617328E-03  6.33817806253E-03
  6.49796937368E-03  6.66178917107E-03  6.82973901655E-03  7.00192303244E-03
  7.17844796609E-03  7.35942325602E-03  7.54496109982E-03  7.73517652369E-03
  7.93018745372E-03  8.13011478904E-03  8.33508247678E-03  8.54521758885E-03
  8.76065040078E-03  8.98151447248E-03  9.20794673101E-03  9.44008755549E-03
  9.67808086412E-03  9.92207420344E-03  1.01722188397E-02  1.04286698529E-02
  1.06915862325E-02  1.09611309763E-02  1.12374711916E-02  1.15207781985E-02
  1.18112276361E-02  1.21089995717E-02  1.24142786124E-02  1.27272540190E-02
  1.30481198241E-02  1.33770749519E-02  1.37143233417E-02  1.40600740743E-02
  1.44145415015E-02  1.47779453793E-02  1.51505110038E-02  1.55324693512E-02
  1.59240572205E-02  1.63255173810E-02  1.67370987221E-02  1.71590564083E-02
  1.75916520366E-02  1.80351537995E-02  1.84898366506E-02  1.89559824755E-02
  1.94338802663E-02  1.99238263009E-02  2.04261243267E-02  2.09410857487E-02
  2.14690298228E-02  2.20102838536E-02  2.25651833974E-02  2.31340724702E-02
  2.37173037610E-02  2.43152388501E-02  2.49282484340E-02  2.55567125545E-02
  2.62010208348E-02  2.68615727208E-02  2.75387777286E-02  2.82330556989E-02
  2.89448370568E-02  2.96745630788E-02  3.04226861664E-02  3.11896701267E-02
  3.19759904595E-02  3.27821346527E-02  3.36086024841E-02  3.44559063314E-02
  3.53245714896E-02  3.62151364971E-02  3.71281534694E-02  3.80641884410E-02
  3.90238217172E-02  4.00076482327E-02  4.10162779215E-02  4.20503360945E-02
  4.31104638272E-02  4.41973183572E-02  4.53115734917E-02  4.64539200252E-02
  4.76250661677E-02  4.88257379840E-02  5.00566798436E-02  5.13186548820E-02
  5.26124454743E-02  5.39388537200E-02  5.52987019402E-02  5.66928331875E-02
  5.81221117686E-02  5.95874237801E-02  6.10896776581E-02  6.26298047410E-02
  6.42087598473E-02  6.58275218672E-02  6.74870943697E-02  6.91885062248E-02
  7.09328122409E-02  7.27210938196E-02  7.45544596251E-02  7.64340462726E-02
  7.83610190319E-02  8.03365725506E-02  8.23619315946E-02  8.44383518069E-02
  8.65671204866E-02  8.87495573870E-02  9.09870155333E-02  9.32808820618E-02
  9.56325790799E-02  9.80435645474E-02  1.00515333181E-01  1.03049417380E-01
  1.05647388178E-01  1.08310856214E-01  1.11041472734E-01  1.13840930614E-01
  1.16710965407E-01  1.19653356423E-01  1.22669927828E-01  1.25762549779E-01
  1.28933139580E-01  1.32183662873E-01  1.35516134853E-01  1.38932621524E-01
  1.42435240974E-01  1.46026164688E-01  1.49707618899E-01  1.53481885963E-01
  1.57351305780E-01  1.61318277237E-01  1.65385259700E-01  1.69554774540E-01
  1.73829406693E-01  1.78211806262E-01  1.82704690164E-01  1.87310843811E-01
  1.92033122836E-01  1.96874454869E-01  2.01837841344E-01  2.06926359368E-01
  2.12143163621E-01  2.17491488318E-01  2.22974649210E-01  2.28596045643E-01
  2.34359162661E-01  2.40267573171E-01  2.46324940157E-01  2.52535018947E-01
  2.58901659548E-01  2.65428809027E-01  2.72120513960E-01  2.78980922943E-01
  2.86014289160E-01  2.93224973022E-01  3.00617444871E-01  3.08196287749E-01
  3.15966200242E-01  3.23931999391E-01  3.32098623679E-01  3.40471136092E-01
  3.49054727261E-01  3.57854718675E-01  3.66876565984E-01  3.76125862380E-01
  3.85608342063E-01  3.95329883799E-01  4.05296514564E-01  4.15514413276E-01
  4.25989914634E-01  4.36729513036E-01  4.47739866614E-01  4.59027801353E-01
  4.70600315333E-01  4.82464583056E-01  4.94627959905E-01  5.07097986695E-01
  5.19882394356E-01  5.32989108717E-01  5.46426255428E-01  5.60202164994E-01
  5.74325377937E-01  5.88804650097E-01  6.03648958055E-01  6.18867504698E-01
  6.34469724931E-01  6.50465291516E-01  6.66864121079E-01  6.83676380251E-01
  7.00912491973E-01  7.18583141959E-01  7.36699285319E-01  7.55272153351E-01
  7.74313260507E-01  7.93834411524E-01  8.13847708752E-01  8.34365559651E-01
  8.55400684483E-01  8.76966124201E-01  8.99075248532E-01  9.21741764267E-01
  9.44979723756E-01  9.68803533623E-01  9.93227963697E-01  1.01826815617E+00
  1.04393963497E+00  1.07025831541E+00  1.09724051405E+00  1.12490295879E+00
  1.15326279925E+00  1.18233761744E+00  1.21214543859E+00  1.24270474238E+00
  1.27403447440E+00  1.30615405783E+00  1.33908340557E+00  1.37284293252E+00
  1.40745356827E+00  1.44293677004E+00  1.47931453603E+00  1.51660941904E+00
  1.55484454042E+00  1.59404360445E+00  1.63423091303E+00  1.67543138069E+00
  1.71767055012E+00  1.76097460794E+00  1.80537040098E+00  1.85088545288E+00
  1.89754798120E+00  1.94538691486E+00  1.99443191214E+00  2.04471337900E+00
  2.09626248799E+00  2.14911119754E+00  2.20329227176E+00  2.25883930081E+00
  2.31578672166E+00  2.37416983948E+00  2.43402484951E+00  2.49538885952E+00
  2.55829991279E+00  2.62279701169E+00  2.68892014191E+00  2.75671029719E+00
  2.82620950477E+00  2.89746085143E+00  2.97050851022E+00  3.04539776781E+00
  3.12217505262E+00  3.20088796355E+00  3.28158529952E+00  3.36431708971E+00
  3.44913462459E+00  3.53609048770E+00  3.62523858827E+00  3.71663419463E+00
  3.81033396847E+00  3.90639599998E+00  4.00487984384E+00  4.10584655619E+00
  4.20935873242E+00  4.31548054602E+00  4.42427778836E+00  4.53581790947E+00
  4.65017005984E+00  4.76740513332E+00  4.88759581107E+00  5.01081660659E+00
  5.13714391194E+00  5.26665604511E+00  5.39943329852E+00  5.53555798889E+00
  5.67511450816E+00  5.81818937593E+00  5.96487129299E+00  6.11525119638E+00
  6.26942231575E+00  6.42748023115E+00  6.58952293228E+00  6.75565087927E+00
  6.92596706493E+00  7.10057707862E+00  7.27958917170E+00  7.46311432465E+00
  7.65126631587E+00  7.84416179222E+00  8.04192034133E+00  8.24466456574E+00
  8.45252015893E+00  8.66561598322E+00  8.88408414965E+00  9.10806009993E+00
  9.33768269037E+00  9.57309427797E+00  9.81444080868E+00  1.00618719079E+01
  1.03155409732E+01  1.05756052694E+01  1.08422260263E+01  1.11155685382E+01
  1.13958022668E+01  1.16831009459E+01  1.19776426896E+01  1.22796101022E+01
  1.25891903916E+01  1.29065754854E+01  1.32319621499E+01  1.35655521122E+01
  1.39075521850E+01  1.42581743948E+01  1.46176361137E+01  1.49861601939E+01
  1.53639751058E+01  1.57513150799E+01  1.61484202518E+01  1.65555368111E+01
  1.69729171541E+01  1.74008200403E+01  1.78395107526E+01  1.82892612622E+01
  1.87503503967E+01  1.92230640132E+01  1.97076951758E+01  2.02045443367E+01
  2.07139195229E+01  2.12361365270E+01  2.17715191032E+01  2.23203991676E+01
  2.28831170043E+01  2.34600214764E+01  2.40514702420E+01  2.46578299762E+01
  2.52794765981E+01  2.59167955044E+01  2.65701818078E+01  2.72400405821E+01
  2.79267871136E+01  2.86308471582E+01  2.93526572054E+01  3.00926647492E+01
  3.08513285654E+01  3.16291189956E+01  3.24265182395E+01  3.32440206533E+01
  3.40821330565E+01  3.49413750460E+01  3.58222793179E+01  3.67253919986E+01
  3.76512729824E+01  3.86004962792E+01  3.95736503702E+01  4.05713385729E+01
  4.15941794148E+01  4.26428070171E+01  4.37178714879E+01  4.48200393249E+01
  4.59499938289E+01  4.71084355276E+01  4.82960826093E+01  4.95136713686E+01
  5.07619566628E+01  5.20417123799E+01  5.33537319182E+01  5.46988286785E+01
  5.60778365679E+01  5.74916105173E+01  5.89410270111E+01  6.04269846307E+01
  6.19504046116E+01  6.35122314144E+01  6.51134333105E+01  6.67550029823E+01
  6.84379581387E+01  7.01633421458E+01  7.19322246740E+01  7.37457023613E+01
  7.56048994927E+01  7.75109686974E+01  7.94650916637E+01  8.14684798712E+01
  8.35223753420E+01  8.56280514108E+01  8.77868135142E+01  9.00000000000E+01
  </PP_R>
  <PP_RAB>
  7.46951043162E-07  7.65782367459E-07  7.85088446800E-07  8.04881250196E-07
  8.25173048409E-07  8.45976421560E-07  8.67304266923E-07  8.89169806926E-07
  9.11586597348E-07  9.34568535718E-07  9.58129869938E-07  9.82285207112E-07
  1.00704952260E-06  1.03243816931E-06  1.05846688720E-06  1.08515181307E-06
  1.11250949051E-06  1.14055688022E-06  1.16931137047E-06  1.19879078793E-06
  1.22901340867E-06  1.25999796954E-06  1.29176367975E-06  1.32433023280E-06
  1.35771781866E-06  1.39194713634E-06  1.42703940667E-06  1.46301638548E-06
  1.49990037709E-06  1.53771424812E-06  1.57648144170E-06  1.61622599196E-06
  1.65697253897E-06  1.69874634399E-06  1.74157330513E-06  1.78547997344E-06
  1.83049356933E-06  1.87664199946E-06  1.92395387406E-06  1.97245852462E-06
  2.02218602213E-06  2.07316719569E-06  2.12543365163E-06  2.17901779310E-06
  2.23395284016E-06  2.29027285040E-06  2.34801274001E-06  2.40720830545E-06
  2.46789624567E-06  2.53011418480E-06  2.59390069552E-06  2.65929532297E-06
  2.72633860926E-06  2.79507211859E-06  2.86553846305E-06  2.93778132900E-06
  3.01184550419E-06  3.08777690551E-06  3.16562260744E-06  3.24543087128E-06
  3.32725117500E-06  3.41113424401E-06  3.49713208250E-06  3.58529800576E-06
  3.67568667322E-06  3.76835412231E-06  3.86335780320E-06  3.96075661445E-06
  4.06061093951E-06  4.16298268415E-06  4.26793531483E-06  4.37553389807E-06
  4.48584514077E-06  4.59893743158E-06  4.71488088328E-06  4.83374737627E-06
  4.95561060312E-06  5.08054611423E-06  5.20863136475E-06  5.33994576249E-06
  5.47457071724E-06  5.61258969118E-06  5.75408825068E-06  5.89915411929E-06
  6.04787723216E-06  6.20034979179E-06  6.35666632518E-06  6.51692374247E-06
  6.68122139697E-06  6.84966114678E-06  7.02234741794E-06  7.19938726916E-06
  7.38089045823E-06  7.56696950999E-06  7.75773978616E-06  7.95331955683E-06
  8.15383007380E-06  8.35939564572E-06  8.57014371519E-06  8.78620493775E-06
  9.00771326288E-06  9.23480601706E-06  9.46762398890E-06  9.70631151640E-06
  9.95101657649E-06  1.02018908767E-05  1.04590899492E-05  1.07227732475E-05
  1.09931042447E-05  1.12702505356E-05  1.15543839399E-05  1.18456806092E-05
  1.21443211361E-05  1.24504906659E-05  1.27643790118E-05  1.30861807722E-05
  1.34160954516E-05  1.37543275842E-05  1.41010868606E-05  1.44565882580E-05
  1.48210521732E-05  1.51947045598E-05  1.55777770674E-05  1.59705071860E-05
  1.63731383929E-05  1.67859203037E-05  1.72091088269E-05  1.76429663229E-05
  1.80877617662E-05  1.85437709126E-05  1.90112764700E-05  1.94905682734E-05
  1.99819434649E-05  2.04857066779E-05  2.10021702259E-05  2.15316542960E-05
  2.20744871475E-05  2.26310053155E-05  2.32015538196E-05  2.37864863773E-05
  2.43861656240E-05  2.50009633372E-05  2.56312606675E-05  2.62774483744E-05
  2.69399270691E-05  2.76191074623E-05  2.83154106192E-05  2.90292682205E-05
  2.97611228300E-05  3.05114281687E-05  3.12806493967E-05  3.20692634008E-05
  3.28777590908E-05  3.37066377024E-05  3.45564131079E-05  3.54276121346E-05
  3.63207748917E-05  3.72364551053E-05  3.81752204611E-05  3.91376529567E-05
  4.01243492628E-05  4.11359210921E-05  4.21729955797E-05  4.32362156711E-05
  4.43262405210E-05  4.54437459021E-05  4.65894246238E-05  4.77639869622E-05
  4.89681610998E-05  5.02026935774E-05  5.14683497566E-05  5.27659142947E-05
  5.40961916308E-05  5.54600064848E-05  5.68582043683E-05  5.82916521093E-05
  5.97612383891E-05  6.12678742935E-05  6.28124938779E-05  6.43960547457E-05
  6.60195386427E-05  6.76839520651E-05  6.93903268841E-05  7.11397209851E-05
  7.29332189239E-05  7.47719325989E-05  7.66570019404E-05  7.85895956176E-05
  8.05709117628E-05  8.26021787143E-05  8.46846557779E-05  8.68196340078E-05
  8.90084370068E-05  9.12524217469E-05  9.35529794107E-05  9.59115362538E-05
  9.83295544888E-05  1.00808533192E-04  1.03350009234E-04  1.05955558229E-04
  1.08626795516E-04  1.11365377158E-04  1.14173000966E-04  1.17051407559E-04
  1.20002381435E-04  1.23027752083E-04  1.26129395114E-04  1.29309233424E-04
  1.32569238389E-04  1.35911431084E-04  1.39337883537E-04  1.42850720015E-04
  1.46452118339E-04  1.50144311234E-04  1.53929587715E-04  1.57810294505E-04
  1.61788837491E-04  1.65867683212E-04  1.70049360394E-04  1.74336461512E-04
  1.78731644400E-04  1.83237633901E-04  1.87857223550E-04  1.92593277312E-04
  1.97448731355E-04  2.02426595870E-04  2.07529956938E-04  2.12761978443E-04
  2.18125904032E-04  2.23625059129E-04  2.29262852995E-04  2.35042780841E-04
  2.40968425996E-04  2.47043462127E-04  2.53271655519E-04  2.59656867407E-04
  2.66203056372E-04  2.72914280794E-04  2.79794701371E-04  2.86848583692E-04
  2.94080300888E-04  3.01494336341E-04  3.09095286462E-04  3.16887863541E-04
  3.24876898671E-04  3.33067344740E-04  3.41464279505E-04  3.50072908734E-04
  3.58898569442E-04  3.67946733191E-04  3.77223009488E-04  3.86733149261E-04
  3.96483048424E-04  4.06478751531E-04  4.16726455527E-04  4.27232513587E-04
  4.38003439055E-04  4.49045909481E-04  4.60366770766E-04  4.71973041398E-04
  4.83871916811E-04  4.96070773841E-04  5.08577175300E-04  5.21398874669E-04
  5.34543820897E-04  5.48020163335E-04  5.61836256788E-04  5.76000666692E-04
  5.90522174426E-04  6.05409782755E-04  6.20672721412E-04  6.36320452821E-04
  6.52362677963E-04  6.68809342387E-04  6.85670642381E-04  7.02957031290E-04
  7.20679225996E-04  7.38848213567E-04  7.57475258062E-04  7.76571907517E-04
  7.96150001108E-04  8.16221676484E-04  8.36799377297E-04  8.57895860915E-04
  8.79524206331E-04  9.01697822271E-04  9.24430455507E-04  9.47736199380E-04
  9.71629502539E-04  9.96125177893E-04  1.02123841180E-03  1.04698477349E-03
  1.07338022468E-03  1.10044112953E-03  1.12818426473E-03  1.15662682994E-03
  1.18578645844E-03  1.21568122806E-03  1.24632967236E-03  1.27775079220E-03
  1.30996406744E-03  1.34298946903E-03  1.37684747144E-03  1.41155906530E-03
  1.44714577043E-03  1.48362964921E-03  1.52103332019E-03  1.55937997220E-03
  1.59869337866E-03  1.63899791232E-03  1.68031856043E-03  1.72268094017E-03
  1.76611131454E-03  1.81063660869E-03  1.85628442654E-03  1.90308306796E-03
  1.95106154626E-03  2.00024960622E-03  2.05067774252E-03  2.10237721861E-03
  2.15538008615E-03  2.20971920483E-03  2.26542826279E-03  2.32254179744E-03
  2.38109521695E-03  2.44112482214E-03  2.50266782900E-03  2.56576239179E-03
  2.63044762667E-03  2.69676363594E-03  2.76475153294E-03  2.83445346748E-03
  2.90591265204E-03  2.97917338851E-03  3.05428109568E-03  3.13128233737E-03
  3.21022485135E-03  3.29115757886E-03  3.37413069504E-03  3.45919563995E-03
  3.54640515053E-03  3.63581329326E-03  3.72747549768E-03  3.82144859076E-03
  3.91779083214E-03  4.01656195023E-03  4.11782317925E-03  4.22163729718E-03
  4.32806866472E-03  4.43718326514E-03  4.54904874521E-03  4.66373445714E-03
  4.78131150159E-03  4.90185277170E-03  5.02543299834E-03  5.15212879640E-03
  5.28201871231E-03  5.41518327273E-03  5.55170503446E-03  5.69166863564E-03
  5.83516084822E-03  5.98227063174E-03  6.13308918850E-03  6.28771002009E-03
  6.44622898537E-03  6.60874435987E-03  6.77535689677E-03  6.94616988930E-03
  7.12128923481E-03  7.30082350044E-03  7.48488399039E-03  7.67358481495E-03
  7.86704296124E-03  8.06537836570E-03  8.26871398854E-03  8.47717588984E-03
  8.69089330783E-03  8.90999873891E-03  9.13462801988E-03  9.36492041207E-03
  9.60101868774E-03  9.84306921855E-03  1.00912220664E-02  1.03456310762E-02
  1.06064539717E-02  1.08738524528E-02  1.11479922960E-02  1.14290434574E-02
  1.17171801777E-02  1.20125810902E-02  1.23154293320E-02  1.26259126572E-02
  1.29442235532E-02  1.32705593602E-02  1.36051223938E-02  1.39481200698E-02
  1.42997650334E-02  1.46602752906E-02  1.50298743438E-02  1.54087913297E-02
  1.57972611621E-02  1.61955246771E-02  1.66038287824E-02  1.70224266105E-02
  1.74515776757E-02  1.78915480348E-02  1.83426104522E-02  1.88050445690E-02
  1.92791370760E-02  1.97651818922E-02  2.02634803462E-02  2.07743413635E-02
  2.12980816579E-02  2.18350259279E-02  2.23855070579E-02  2.29498663246E-02
  2.35284536086E-02  2.41216276113E-02  2.47297560774E-02  2.53532160227E-02
  2.59923939678E-02  2.66476861782E-02  2.73194989091E-02  2.80082486583E-02
  2.87143624234E-02  2.94382779675E-02  3.01804440896E-02  3.09413209039E-02
  3.17213801239E-02  3.25211053559E-02  3.33409923981E-02  3.41815495484E-02
  3.50432979192E-02  3.59267717608E-02  3.68325187922E-02  3.77611005412E-02
  3.87130926920E-02  3.96890854424E-02  4.06896838696E-02  4.17155083056E-02
  4.27671947211E-02  4.38453951205E-02  4.49507779458E-02  4.60840284910E-02
  4.72458493270E-02  4.84369607372E-02  4.96581011640E-02  5.09100276665E-02
  5.21935163901E-02  5.35093630475E-02  5.48583834119E-02  5.62414138232E-02
  5.76593117060E-02  5.91129561014E-02  6.06032482118E-02  6.21311119601E-02
  6.36974945617E-02  6.53033671125E-02  6.69497251905E-02  6.86375894732E-02
  7.03680063703E-02  7.21420486723E-02  7.39608162160E-02  7.58254365659E-02
  7.77370657135E-02  7.96968887940E-02  8.17061208208E-02  8.37660074390E-02
  8.58778256975E-02  8.80428848409E-02  9.02625271209E-02  9.25381286288E-02
  9.48711001481E-02  9.72628880299E-02  9.97149750889E-02  1.02228881523E-01
  1.04806165855E-01  1.07448425901E-01  1.10157299758E-01  1.12934466822E-01
  1.15781648827E-01  1.18700610916E-01  1.21693162729E-01  1.24761159531E-01
  1.27906503361E-01  1.31131144208E-01  1.34437081223E-01  1.37826363958E-01
  1.41301093634E-01  1.44863424448E-01  1.48515564906E-01  1.52259779191E-01
  1.56098388569E-01  1.60033772828E-01  1.64068371752E-01  1.68204686633E-01
  1.72445281825E-01  1.76792786330E-01  1.81249895432E-01  1.85819372362E-01
  1.90504050018E-01  1.95306832715E-01  2.00230697991E-01  2.05278698449E-01
  2.10453963652E-01  2.15759702061E-01  2.21199203025E-01  2.26775838823E-01
  2.32493066750E-01  2.38354431262E-01  2.44363566176E-01  2.50524196921E-01
  2.56840142845E-01  2.63315319587E-01  2.69953741504E-01  2.76759524156E-01
  2.83736886862E-01  2.90890155313E-01  2.98223764256E-01  3.05742260239E-01
  3.13450304436E-01  3.21352675533E-01  3.29454272689E-01  3.37760118576E-01
  3.46275362495E-01  3.55005283561E-01  3.63955293984E-01  3.73130942420E-01
  3.82537917410E-01  3.92182050911E-01  4.02069321907E-01  4.12205860118E-01
  4.22597949801E-01  4.33252033643E-01  4.44174716760E-01  4.55372770786E-01
  4.66853138075E-01  4.78622936006E-01  4.90689461392E-01  5.03060195004E-01
  5.15742806214E-01  5.28745157743E-01  5.42075310538E-01  5.55741528773E-01
  5.69752284966E-01  5.84116265237E-01  5.98842374690E-01  6.13939742937E-01
  6.29417729753E-01  6.45285930883E-01  6.61554183990E-01  6.78232574754E-01
  6.95331443122E-01  7.12861389722E-01  7.30833282434E-01  7.49258263127E-01
  7.68147754566E-01  7.87513467496E-01  8.07367407899E-01  8.27721884440E-01
  8.48589516096E-01  8.69983239981E-01  8.91916319364E-01  9.14402351896E-01
  9.37455278034E-01  9.61089389689E-01  9.85319339083E-01  1.01016014784E+00
  1.03562721627E+00  1.06173633298E+00  1.08850368459E+00  1.11594586580E+00
  1.14407988970E+00  1.17292319827E+00  1.20249367323E+00  1.23280964713E+00
  1.26388991467E+00  1.29575374440E+00  1.32842089066E+00  1.36191160578E+00
  1.39624665269E+00  1.43144731779E+00  1.46753542411E+00  1.50453334484E+00
  1.54246401726E+00  1.58135095690E+00  1.62121827213E+00  1.66209067912E+00
  1.70399351716E+00  1.74695276438E+00  1.79099505382E+00  1.83614768997E+00
  1.88243866569E+00  1.92989667959E+00  1.97855115375E+00  2.02843225206E+00
  2.07957089884E+00  2.13199879803E+00  2.18574845289E+00  2.24085318609E+00
  </PP_RAB>
</PP_MESH>
<PP_NLCC>
  5.25327834069E+01  5.25327833077E+01  5.25327832035E+01  5.25327830940E+01
  5.25327829788E+01  5.25327828578E+01  5.25327827306E+01  5.25327825969E+01
  5.25327824564E+01  5.25327823086E+01  5.25327821534E+01  5.25327819902E+01
  5.25327818187E+01  5.25327816385E+01  5.25327814490E+01  5.25327812499E+01
  5.25327810406E+01  5.25327808206E+01  5.25327805894E+01  5.25327803464E+01
  5.25327800909E+01  5.25327798225E+01  5.25327795403E+01  5.25327792437E+01
  5.25327789320E+01  5.25327786043E+01  5.25327782599E+01  5.25327778980E+01
  5.25327775175E+01  5.25327771177E+01  5.25327766974E+01  5.25327762557E+01
  5.25327757914E+01  5.25327753034E+01  5.25327747905E+01  5.25327742513E+01
  5.25327736847E+01  5.25327730892E+01  5.25327724632E+01  5.25327718053E+01
  5.25327711138E+01  5.25327703869E+01  5.25327696230E+01  5.25327688201E+01
  5.25327679761E+01  5.25327670891E+01  5.25327661568E+01  5.25327651769E+01
  5.25327641469E+01  5.25327630644E+01  5.25327619266E+01  5.25327607307E+01
  5.25327594737E+01  5.25327581526E+01  5.25327567640E+01  5.25327553045E+01
  5.25327537705E+01  5.25327521582E+01  5.25327504635E+01  5.25327486824E+01
  5.25327468103E+01  5.25327448426E+01  5.25327427744E+01  5.25327406006E+01
  5.25327383159E+01  5.25327359145E+01  5.25327333905E+01  5.25327307376E+01
  5.25327279493E+01  5.25327250186E+01  5.25327219383E+01  5.25327187007E+01
  5.25327152978E+01  5.25327117211E+01  5.25327079619E+01  5.25327040107E+01
  5.25326998578E+01  5.25326954928E+01  5.25326909050E+01  5.25326860829E+01
  5.25326810146E+01  5.25326756876E+01  5.25326700885E+01  5.25326642036E+01
  5.25326580182E+01  5.25326515171E+01  5.25326446840E+01  5.25326375020E+01
  5.25326299533E+01  5.25326220192E+01  5.25326136800E+01  5.25326049150E+01
  5.25325957025E+01  5.25325860197E+01  5.25325758424E+01  5.25325651456E+01
  5.25325539026E+01  5.25325420855E+01  5.25325296651E+01  5.25325166106E+01
  5.25325028895E+01  5.25324884679E+01  5.25324733100E+01  5.25324573781E+01
  5.25324406328E+01  5.25324230325E+01  5.25324045336E+01  5.25323850903E+01
  5.25323646542E+01  5.25323431746E+01  5.25323205985E+01  5.25322968696E+01
  5.25322719292E+01  5.25322457155E+01  5.25322181633E+01  5.25321892044E+01
  5.25321587670E+01  5.25321267755E+01  5.25320931507E+01  5.25320578091E+01
  5.25320206630E+01  5.25319816205E+01  5.25319405845E+01  5.25318974534E+01
  5.25318521201E+01  5.25318044723E+01  5.25317543918E+01  5.25317017544E+01
  5.25316464294E+01  5.25315882798E+01  5.25315271613E+01  5.25314629224E+01
  5.25313954036E+01  5.25313244377E+01  5.25312498484E+01  5.25311714510E+01
  5.25310890510E+01  5.25310024439E+01  5.25309114151E+01  5.25308157388E+01
  5.25307151777E+01  5.25306094825E+01  5.25304983909E+01  5.25303816276E+01
  5.25302589030E+01  5.25301299127E+01  5.25299943368E+01  5.25298518392E+01
  5.25297020665E+01  5.25295446473E+01  5.25293791912E+01  5.25292052880E+01
  5.25290225063E+01  5.25288303931E+01  5.25286284719E+01  5.25284162420E+01
  5.25281931772E+01  5.25279587244E+01  5.25277123023E+01  5.25274532998E+01
  5.25271810749E+01  5.25268949525E+01  5.25265942232E+01  5.25262781415E+01
  5.25259459237E+01  5.25255967462E+01  5.25252297433E+01  5.25248440052E+01
  5.25244385756E+01  5.25240124494E+01  5.25235645705E+01  5.25230938284E+01
  5.25225990564E+01  5.25220790281E+01  5.25215324546E+01  5.25209579810E+01
  5.25203541837E+01  5.25197195662E+01  5.25190525557E+01  5.25183514993E+01
  5.25176146598E+01  5.25168402113E+01  5.25160262347E+01  5.25151707135E+01
  5.25142715278E+01  5.25133264501E+01  5.25123331392E+01  5.25112891343E+01
  5.25101918496E+01  5.25090385672E+01  5.25078264309E+01  5.25065524388E+01
  5.25052134362E+01  5.25038061077E+01  5.25023269688E+01  5.25007723577E+01
  5.24991384262E+01  5.24974211300E+01  5.24956162189E+01  5.24937192264E+01
  5.24917254588E+01  5.24896299834E+01  5.24874276165E+01  5.24851129107E+01
  5.24826801418E+01  5.24801232941E+01  5.24774360465E+01  5.24746117563E+01
  5.24716434433E+01  5.24685237729E+01  5.24652450376E+01  5.24617991388E+01
  5.24581775668E+01  5.24543713798E+01  5.24503711825E+01  5.24461671032E+01
  5.24417487697E+01  5.24371052839E+01  5.24322251960E+01  5.24270964759E+01
  5.24217064850E+01  5.24160419449E+01  5.24100889058E+01  5.24038327128E+01
  5.23972579706E+01  5.23903485065E+01  5.23830873314E+01  5.23754565998E+01
  5.23674375664E+01  5.23590105417E+01  5.23501548454E+01  5.23408487567E+01
  5.23310694633E+01  5.23207930073E+01  5.23099942289E+01  5.22986467067E+01
  5.22867226964E+01  5.22741930655E+01  5.22610272255E+01  5.22471930608E+01
  5.22326568545E+01  5.22173832104E+01  5.22013349718E+01  5.21844731365E+01
  5.21667567676E+01  5.21481429012E+01  5.21285864489E+01  5.21080400967E+01
  5.20864541993E+01  5.20637766700E+01  5.20399528654E+01  5.20149254654E+01
  5.19886343489E+01  5.19610164630E+01  5.19320056881E+01  5.19015326965E+01
  5.18695248066E+01  5.18359058303E+01  5.18005959150E+01  5.17635113801E+01
  5.17245645468E+01  5.16836635619E+01  5.16407122165E+01  5.15956097567E+01
  5.15482506901E+01  5.14985245846E+01  5.14463158623E+01  5.13915035865E+01
  5.13339612436E+01  5.12735565191E+01  5.12101510678E+01  5.11436002799E+01
  5.10737530415E+01  5.10004514916E+01  5.09235307748E+01  5.08428187913E+01
  5.07581359450E+01  5.06692948894E+01  5.05761002741E+01  5.04783484913E+01
  5.03758274244E+01  5.02683162012E+01  5.01555849508E+01  5.00373945690E+01
  4.99134964921E+01  4.97836324825E+01  4.96475344291E+01  4.95049241635E+01
  4.93555132983E+01  4.91990030875E+01  4.90350843160E+01  4.88634372208E+01
  4.86837314486E+01  4.84956260556E+01  4.82987695552E+01  4.80928000178E+01
  4.78773452323E+01  4.76520229337E+01  4.74164411049E+01  4.71701983627E+01