<UPF version="2.0.1">
<PP_INFO>
Generated by new atomic code, or converted to UPF format
Author:
Generation date:
Pseudopotential type: NC
Element: H
Functional:  SLA  LYP  B88  BLYP
Suggested minimum cutoff for wavefunctions:  60. Ry
Suggested minimum cutoff for charge density: 240. Ry
The Pseudo was generated with a Non-Relativistic Calculation
L component and cutoff radius for Local Potential:  0   0.0000
Valence configuration:
nl pn  l   occ       Rcut    Rcut US       E pseu
1S  0  0  1.00      0.000      0.000     0.000000
Generation configuration: not available.
</PP_INFO>
<!--
END OF HUMAN READABLE SECTION
-->
<PP_HEADER generated="Generated by new atomic code, or converted to UPF format" author="" date="" comment="" element="H " pseudo_type="NC" relativistic="no" is_ultrasoft="false" is_paw="false" is_coulomb="false" has_so="false" has_wfc="false" has_gipaw="false" paw_as_gipaw="false" core_correction="false" functional=" SLA  LYP  B88  BLYP" z_valence="1.000000000000e0" total_psenergy="0.000000000000e0" wfc_cutoff="6.000000000000e1" rho_cutoff="2.400000000000e2" l_max="-1" l_max_rho="0" l_local="0" mesh_size="243" number_of_wfc="1" number_of_proj="0"/>
<PP_MESH dx="5.000000000000e-2" mesh="243" xmin="-7.999999999999e0" rmax="6.034028759740e1" zmesh="1.000000000000e0">
<PP_R>
3.354626279030000e-4 3.526621646279999e-4 3.707435404590000e-4 3.897519682530000e-4
4.097349789800000e-4 4.307425405760000e-4 4.528271828870000e-4 4.760441290219999e-4
5.004514334410000e-4 5.261101271160000e-4 5.530843701480000e-4 5.814416121939999e-4
6.112527611299999e-4 6.425923603560001e-4 6.755387751940000e-4 7.101743888430000e-4
7.465858083770000e-4 7.848640813109999e-4 8.251049232660000e-4 8.674089573070001e-4
9.118819655550002e-4 9.586351536939999e-4 1.007785429050000e-3 1.059455692910000e-3
1.113775147840000e-3 1.170879620790000e-3 1.230911902670000e-3 1.294022105470000e-3
1.360368037550000e-3 1.430115598310000e-3 1.503439192980000e-3 1.580522168740000e-3
1.661557273170000e-3 1.746747136260000e-3 1.836304777030000e-3 1.930454136230000e-3
2.029430636300000e-3 2.133481770040000e-3 2.242867719490000e-3 2.357862006490000e-3
2.478752176670000e-3 2.605840518410000e-3 2.739444818770000e-3 2.879899158090000e-3
3.027554745380000e-3 3.182780796509999e-3 3.345965457470000e-3 3.517516774910000e-3
3.697863716480000e-3 3.887457243480000e-3 4.086771438460000e-3 4.296304690750000e-3
4.516580942609999e-3 4.748150999410000e-3 4.991593906910000e-3 5.247518399180001e-3
5.516564420760000e-3 5.799404726840000e-3 6.096746565519999e-3 6.409333446260001e-3
6.737946999090000e-3 7.083408929050000e-3 7.446583070920000e-3 7.828377549229999e-3
8.229747049020000e-3 8.651695203119999e-3 9.095277101700001e-3 9.561601930540000e-3
1.005183574460000e-2 1.056720438390000e-2 1.110899653820000e-2 1.167856697040000e-2
1.227733990310000e-2 1.290681258050000e-2 1.356855901220000e-2 1.426423390900000e-2
1.499557682050000e-2 1.576441648490000e-2 1.657267540180000e-2 1.742237463950000e-2
1.831563888870000e-2 1.925470177540000e-2 2.024191144580000e-2 2.127973643840000e-2
2.237077185620000e-2 2.351774585600000e-2 2.472352647030000e-2 2.599112877880000e-2
2.732372244730001e-2 2.872463965420000e-2 3.019738342230000e-2 3.174563637810000e-2
3.337326996030000e-2 3.508435410080000e-2 3.688316740120000e-2 3.877420783170000e-2
4.076220397839999e-2 4.285212686700000e-2 4.504920239360001e-2 4.735892439110001e-2
4.978706836790000e-2 5.233970594840000e-2 5.502322005640000e-2 5.784432087480001e-2
6.081006262520000e-2 6.392786120670001e-2 6.720551273970000e-2 7.065121306040000e-2
7.427357821430000e-2 7.808166600120002e-2 8.208499862389999e-2 8.629358649940000e-2
9.071795328940000e-2 9.536916221550001e-2 1.002588437230000e-1 1.053992245620000e-1
1.108031583620000e-1 1.164841577730000e-1 1.224564282530000e-1 1.287349035880000e-1
1.353352832370000e-1 1.422740715870000e-1 1.495686192230000e-1 1.572371663140000e-1
1.652988882220000e-1 1.737739434500000e-1 1.826835240530000e-1 1.920499086210000e-1
2.018965179950000e-1 2.122479738270000e-1 2.231301601480000e-1 2.345702880940000e-1
2.465969639420000e-1 2.592402606460000e-1 2.725317930340000e-1 2.865047968600000e-1
3.011942119120000e-1 3.166367693790000e-1 3.328710836980000e-1 3.499377491110000e-1
3.678794411710000e-1 3.867410234550000e-1 4.065696597410000e-1 4.274149319490000e-1
4.493289641170001e-1 4.723665527410000e-1 4.965853037910001e-1 5.220457767609999e-1
5.488116360939999e-1 5.769498103800000e-1 6.065306597130000e-1 6.376281516220001e-1
6.703200460360001e-1 7.046880897190000e-1 7.408182206819999e-1 7.788007830710000e-1
8.187307530780000e-1 8.607079764249999e-1 9.048374180360000e-1 9.512294245010001e-1
1.000000000000000e0 1.051271096380000e0 1.105170918080000e0 1.161834242730000e0
1.221402758160000e0 1.284025416690000e0 1.349858807580000e0 1.419067548590000e0
1.491824697640000e0 1.568312185490000e0 1.648721270700000e0 1.733253017870000e0
1.822118800390000e0 1.915540829010000e0 2.013752707470000e0 2.117000016610000e0
2.225540928490000e0 2.339646851930000e0 2.459603111160000e0 2.585709659320000e0
2.718281828460000e0 2.857651118060000e0 3.004166023950000e0 3.158192909690000e0
3.320116922740000e0 3.490342957460000e0 3.669296667620000e0 3.857425530700000e0
4.055199966840000e0 4.263114515170000e0 4.481689070340000e0 4.711470182590000e0
4.953032424400000e0 5.206979827180000e0 5.473947391730000e0 5.754602676010000e0
6.049647464410000e0 6.359819522600000e0 6.685894442280000e0 7.028687580590000e0
7.389056098930000e0 7.767901106310000e0 8.166169912570000e0 8.584858397180000e0
9.025013499430001e0 9.487735836360001e0 9.974182454810000e0 1.048556972470000e1
1.102317638060000e1 1.158834671920000e1 1.218249396070000e1 1.280710378270000e1
1.346373803500000e1 1.415403864540000e1 1.487973172490000e1 1.564263188420000e1
1.644464677110000e1 1.728778184060000e1 1.817414536940000e1 1.910595372820000e1
2.008553692320000e1 2.111534442250000e1 2.219795128140000e1 2.333606458090000e1
2.453253019710000e1 2.579033991720000e1 2.711263892070000e1 2.850273364380000e1
2.996410004740000e1 3.150039230870000e1 3.311545195870000e1 3.481331748760001e1
3.659823444370000e1 3.847466604900000e1 4.044730436010000e1 4.252108200010000e1
4.470118449330000e1 4.699306323160000e1 4.940244910550000e1 5.193536683480001e1
5.459815003310000e1 5.739745704540001e1 6.034028759740000e1
</PP_R>
<PP_RAB>
1.677313139510000e-5 1.763310823140000e-5 1.853717702300000e-5 1.948759841260000e-5
2.048674894900000e-5 2.153712702880000e-5 2.264135914429999e-5 2.380220645110000e-5
2.502257167200000e-5 2.630550635580000e-5 2.765421850740000e-5 2.907208060970000e-5
3.056263805650000e-5 3.212961801780001e-5 3.377693875970000e-5 3.550871944209999e-5
3.732929041880000e-5 3.924320406550001e-5 4.125524616330000e-5 4.337044786540000e-5
4.559409827770001e-5 4.793175768469999e-5 5.038927145240000e-5 5.297278464540000e-5
5.568875739220001e-5 5.854398103960000e-5 6.154559513370001e-5 6.470110527329998e-5
6.801840187739999e-5 7.150577991539999e-5 7.517195964890000e-5 7.902610843680000e-5
8.307786365869998e-5 8.733735681310002e-5 9.181523885139999e-5 9.652270681139999e-5
1.014715318150000e-4 1.066740885020000e-4 1.121433859740000e-4 1.178931003250000e-4
1.239376088330000e-4 1.302920259200000e-4 1.369722409380000e-4 1.439949579040000e-4
1.513777372690000e-4 1.591390398250000e-4 1.672982728740000e-4 1.758758387460000e-4
1.848931858240000e-4 1.943728621740000e-4 2.043385719230000e-4 2.148152345380000e-4
2.258290471310000e-4 2.374075499710000e-4 2.495796953460000e-4 2.623759199590000e-4
2.758282210380000e-4 2.899702363420000e-4 3.048373282760000e-4 3.204666723130001e-4
3.368973499540000e-4 3.541704464530000e-4 3.723291535460000e-4 3.914188774610000e-4
4.114873524510000e-4 4.325847601560000e-4 4.547638550850000e-4 4.780800965270000e-4
5.025917872320001e-4 5.283602191929999e-4 5.554498269120001e-4 5.839283485199999e-4
6.138669951530000e-4 6.453406290239999e-4 6.784279506100001e-4 7.132116954500001e-4
7.497788410240000e-4 7.882208242430000e-4 8.286337700880001e-4 8.711187319750000e-4
9.157819444369999e-4 9.627350887690000e-4 1.012095572290000e-3 1.063986821920000e-3
1.118538592810000e-3 1.175887292800000e-3 1.236176323520000e-3 1.299556438940000e-3
1.366186122360000e-3 1.436231982710000e-3 1.509869171120000e-3 1.587281818900000e-3
1.668663498020000e-3 1.754217705040000e-3 1.844158370060000e-3 1.938710391590000e-3
2.038110198920000e-3 2.142606343350000e-3 2.252460119680000e-3 2.367946219560000e-3
2.489353418390000e-3 2.616985297420000e-3 2.751161002820000e-3 2.892216043740000e-3
3.040503131259999e-3 3.196393060340000e-3 3.360275636990000e-3 3.532560653020000e-3
3.713678910720000e-3 3.904083300060000e-3 4.104249931190001e-3 4.314679324970000e-3
4.535897664470000e-3 4.768458110780000e-3 5.012942186140000e-3 5.269961228090001e-3
5.540157918120000e-3 5.824207888670000e-3 6.122821412650000e-3 6.436745179390000e-3
6.766764161829999e-3 7.113703579330000e-3 7.478430961130000e-3 7.861858315680001e-3
8.264944411080000e-3 8.688697172520000e-3 9.134176202639999e-3 9.602495431039999e-3
1.009482589970000e-2 1.061239869130000e-2 1.115650800740000e-2 1.172851440470000e-2
1.232984819710000e-2 1.296201303230000e-2 1.362658965170000e-2 1.432523984300000e-2
1.505971059560000e-2 1.583183846900000e-2 1.664355418490000e-2 1.749688745560000e-2
1.839397205860000e-2 1.933705117270000e-2 2.032848298700000e-2 2.137074659740000e-2
2.246644820590000e-2 2.361832763710000e-2 2.482926518960000e-2 2.610228883810000e-2
2.744058180470000e-2 2.884749051900000e-2 3.032653298560000e-2 3.188140758110000e-2
3.351600230180000e-2 3.523440448590000e-2 3.704091103410001e-2 3.894003915360000e-2
4.093653765390000e-2 4.303539882130000e-2 4.524187090180000e-2 4.756147122500000e-2
5.000000000000000e-2 5.256355481880000e-2 5.525854590380000e-2 5.809171213640000e-2
6.107013790800000e-2 6.420127083439999e-2 6.749294037880000e-2 7.095337742969999e-2
7.459123488210000e-2 7.841560927450000e-2 8.243606353500001e-2 8.666265089340000e-2
9.110594001950000e-2 9.577704145069999e-2 1.006876353740000e-1 1.058500008310000e-1
1.112770464250000e-1 1.169823425960000e-1 1.229801555580000e-1 1.292854829660000e-1
1.359140914230000e-1 1.428825559030000e-1 1.502083011970000e-1 1.579096454840000e-1
1.660058461370000e-1 1.745171478730000e-1 1.834648333810000e-1 1.928712765350000e-1
2.027599983420000e-1 2.131557257580000e-1 2.240844535170000e-1 2.355735091300000e-1
2.476516212200000e-1 2.603489913590000e-1 2.736973695860000e-1 2.877301338000000e-1
3.024823732210000e-1 3.179909761300000e-1 3.342947221140000e-1 3.514343790290000e-1
3.694528049470000e-1 3.883950553150000e-1 4.083084956280000e-1 4.292429198590000e-1
4.512506749720000e-1 4.743867918179999e-1 4.987091227410000e-1 5.242784862360001e-1
5.511588190320000e-1 5.794173359609999e-1 6.091246980350000e-1 6.403551891330000e-1
6.731869017499999e-1 7.077019322690000e-1 7.439865862440000e-1 7.821315942090000e-1
8.222323385550000e-1 8.643890920280001e-1 9.087072684720001e-1 9.552976864120000e-1
1.004276846160000e0 1.055767221130000e0 1.109897564070000e0 1.166803229050000e0
1.226626509860000e0 1.289516995860000e0 1.355631946030000e0 1.425136682190000e0
1.498205002370000e0 1.575019615440000e0 1.655772597930000e0 1.740665874380000e0
1.829911722180000e0 1.923733302450000e0 2.022365218000000e0 2.126054100000000e0
2.235059224670000e0 2.349653161580000e0 2.470122455280000e0 2.596768341740000e0
2.729907501660000e0 2.869872852270000e0 3.017014379870000e0
</PP_RAB>
</PP_MESH>
<PP_LOCAL columns="4">
-1.295022031340000e1 -1.295021915400000e1 -1.295021787270000e1 -1.295021645670000e1
-1.295021489180000e1 -1.295021316220000e1 -1.295021125080000e1 -1.295020913840000e1
-1.295020680370000e1 -1.295020422360000e1 -1.295020137210000e1 -1.295019822070000e1
-1.295019473780000e1 -1.295019088870000e1 -1.295018663470000e1 -1.295018193340000e1
-1.295017673760000e1 -1.295017099540000e1 -1.295016464920000e1 -1.295015763570000e1
-1.295014988450000e1 -1.295014131810000e1 -1.295013185090000e1 -1.295012138790000e1
-1.295010982460000e1 -1.295009704510000e1 -1.295008292170000e1 -1.295006731280000e1
-1.295005006250000e1 -1.295003099790000e1 -1.295000992840000e1 -1.294998664300000e1
-1.294996090870000e1 -1.294993246800000e1 -1.294990103630000e1 -1.294986629900000e1
-1.294982790850000e1 -1.294978548070000e1 -1.294973859090000e1 -1.294968677000000e1
-1.294962949940000e1 -1.294956620600000e1 -1.294949625650000e1 -1.294941895100000e1
-1.294933351600000e1 -1.294923909670000e1 -1.294913474850000e1 -1.294901942720000e1
-1.294889197930000e1 -1.294875112980000e1 -1.294859546960000e1 -1.294842344170000e1
-1.294823332530000e1 -1.294802321910000e1 -1.294779102170000e1 -1.294753441100000e1
-1.294725082100000e1 -1.294693741630000e1 -1.294659106360000e1 -1.294620830060000e1
-1.294578530150000e1 -1.294531783890000e1 -1.294480124190000e1 -1.294423034940000e1
-1.294359945870000e1 -1.294290226960000e1 -1.294213182110000e1 -1.294128042250000e1
-1.294033957790000e1 -1.293929990130000e1 -1.293815102450000e1 -1.293688149470000e1
-1.293547866130000e1 -1.293392855220000e1 -1.293221573590000e1 -1.293032317120000e1
-1.292823203970000e1 -1.292592156350000e1 -1.292336880230000e1 -1.292054843160000e1
-1.291743249840000e1 -1.291399015180000e1 -1.291018734800000e1 -1.290598652580000e1
-1.290134625050000e1 -1.289622082310000e1 -1.289055985310000e1 -1.288430778950000e1
-1.287740340900000e1 -1.286977925670000e1 -1.286136103600000e1 -1.285206694450000e1
-1.284180695160000e1 -1.283048201530000e1 -1.281798323370000e1 -1.280419092950000e1
-1.278897366330000e1 -1.277218717530000e1 -1.275367325420000e1 -1.273325853200000e1
-1.271075320940000e1 -1.268594971300000e1 -1.265862129280000e1 -1.262852056970000e1
-1.259537804710000e1 -1.255890060510000e1 -1.251877000540000e1 -1.247464143710000e1
-1.242614214770000e1 -1.237287021180000e1 -1.231439350300000e1 -1.225024894840000e1
-1.217994216430000e1 -1.210294758680000e1 -1.201870923620000e1 -1.192664227200000e1
-1.182613552380000e1 -1.171655520570000e1 -1.159725004400000e1 -1.146755807120000e1
-1.132681535340000e1 -1.117436692320000e1 -1.100958018530000e1 -1.083186103480000e1
-1.064067287380000e1 -1.043555863110000e1 -1.021616575590000e1 -9.982273981560001e0
-9.733825415100000e0 -9.470956207030000e0 -9.194028688100000e0 -8.903662435339999e0
-8.600762264200000e0 -8.286540672250000e0 -7.962531833080000e0 -7.630593931580000e0
-7.292896536490000e0 -6.951889936290000e0 -6.610254035370000e0 -6.270825620650000e0
-5.936504622030000e0 -5.610142374380000e0 -5.294417694540000e0 -4.991709501350000e0
-4.703977253460000e0 -4.432662043270000e0 -4.178621113920000e0 -3.942106329550000e0
-3.722792527800000e0 -3.519855060850000e0 -3.332088183030000e0 -3.158048850460000e0
-2.996205803690000e0 -2.845073052110000e0 -2.703310690150000e0 -2.569783607660000e0
-2.443578046190000e0 -2.323984344840000e0 -2.210459217280000e0 -2.102581450040000e0
-2.000011686210000e0 -1.902461907730000e0 -1.809675530480000e0 -1.721416087530000e0
-1.637461528100000e0 -1.557601569090000e0 -1.481636441680000e0 -1.409376179460000e0
-1.340640092070000e0 -1.275256303240000e0 -1.213061319430000e0 -1.153899620760000e0
-1.097623272190000e0 -1.044091553520000e0 -9.931706075830000e-1 -9.447331054819999e-1
-8.986579282340001e-1 -8.548298638970000e-1 -8.131393194810000e-1 -7.734820469090000e-1
-7.357588823430000e-1 -6.998754982220000e-1 -6.657421673960000e-1 -6.332735387580000e-1
-6.023884238240001e-1 -5.730095937200001e-1 -5.450635860680000e-1 -5.184805212920000e-1
-4.931939278830000e-1 -4.691405761880000e-1 -4.462603202970000e-1 -4.244959476530000e-1
-4.037930359890000e-1 -3.840998172420000e-1 -3.653670481050000e-1 -3.475478869010000e-1
-3.305977764430000e-1 -3.144743326270000e-1 -2.991372384450000e-1 -2.845481431730000e-1
-2.706705664730000e-1 -2.574698071760000e-1 -2.449128565060000e-1 -2.329683155470000e-1
-2.216063167250000e-1 -2.107984491240000e-1 -2.005176874460000e-1 -1.907383244310000e-1
-1.814359065790000e-1 -1.725871729990000e-1 -1.641699972480000e-1 -1.561633320020000e-1
-1.485471564290000e-1 -1.413024261210000e-1 -1.344110254790000e-1 -1.278557224130000e-1
-1.216201252500000e-1 -1.156886417500000e-1 -1.100464401130000e-1 -1.046794118970000e-1
-9.957413673569999e-2 -9.471784878230000e-2 -9.009840478710000e-2 -8.570425373410000e-2
-8.152440795670001e-2 -7.754841566340000e-2 -7.376633480250000e-2 -7.016870820170000e-2
-6.674653992070000e-2 -6.349127275610000e-2 -6.039476684460000e-2 -5.744927930850000e-2
-5.464744489460001e-2 -5.198225755750000e-2 -4.944705294070000e-2 -4.703549171200000e-2
-4.474154371230000e-2 -4.255947287680001e-2 -4.048382289159999e-2 -3.850940355080001e-2
-3.663127777750000e-2 -3.484474927900000e-2 -3.314535080350000e-2
</PP_LOCAL>
<PP_NONLOCAL>
<PP_DIJ>
6.904689756751051e-310
</PP_DIJ>
</PP_NONLOCAL>
<PP_PSWFC>
<PP_CHI.1 index="1" label="1S" l="0" occupation="1.000000000000e0" n="0" pseudo_energy="0.000000000000e0" cutoff_radius="6.904689756739e-310" ultrasoft_cutoff_radius="6.904689756739e-310">
5.545540200000000e-4 5.829866100000000e-4 6.128769700000001e-4 6.442998500000002e-4
6.773338099999999e-4 7.120614600000000e-4 7.485696300000000e-4 7.869496099999999e-4
8.272973700000000e-4 8.697137900000001e-4 9.143049500000000e-4 9.611823299999999e-4
1.010463200000000e-3 1.062270700000000e-3 1.116734400000000e-3 1.173990500000000e-3
1.234182200000000e-3 1.297459900000000e-3 1.363982000000000e-3 1.433914700000000e-3
1.507432800000000e-3 1.584720300000000e-3 1.665970400000000e-3 1.751386200000000e-3
1.841181300000000e-3 1.935580200000000e-3 2.034819000000000e-3 2.139145700000000e-3
2.248821300000000e-3 2.364120000000000e-3 2.485330000000000e-3 2.612754400000000e-3
2.746711800000000e-3 2.887537100000000e-3 3.035582400000000e-3 3.191217900000000e-3
3.354832600000001e-3 3.526835600000000e-3 3.707656800000000e-3 3.897748400000000e-3
4.097585600000000e-3 4.307667799999999e-3 4.528520400000000e-3 4.760695199999999e-3
5.004772700000000e-3 5.261362900000001e-3 5.531107199999999e-3 5.814679600000000e-3
6.112789000000001e-3 6.426180100000000e-3 6.755636300000001e-3 7.101980600000001e-3
7.466078300000000e-3 7.848839099999999e-3 8.251219100000000e-3 8.674223300000000e-3
9.118908100000001e-3 9.586384000000001e-3 1.007781800000000e-2 1.059443700000000e-2
1.113753000000000e-2 1.170845300000000e-2 1.230863000000000e-2 1.293955800000000e-2
1.360281000000000e-2 1.430004000000000e-2 1.503298500000000e-2 1.580347100000000e-2
1.661341600000000e-2 1.746483400000000e-2 1.835984200000000e-2 1.930066400000000e-2
2.028963800000000e-2 2.132921800000000e-2 2.242198300000000e-2 2.357064200000000e-2
2.477803700000000e-2 2.604715700000000e-2 2.738113600000000e-2 2.878326500000000e-2
3.025700000000000e-2 3.180596599999999e-2 3.343396800000000e-2 3.514499500000000e-2
3.694323300000000e-2 3.883307000000000e-2 4.081910700000000e-2 4.290616399999999e-2
4.509929100000000e-2 4.740377400000001e-2 4.982514999999999e-2 5.236920800000000e-2
5.504200400000000e-2 5.784986600000000e-2 6.079940200000000e-2 6.389751100000001e-2
6.715138500000000e-2 7.056852000000000e-2 7.415671600000000e-2 7.792408600000000e-2
8.187905400000000e-2 8.603035400000001e-2 9.038703400000001e-2 9.495844500000000e-2
9.975423299999999e-2 1.047843300000000e-1 1.100589300000000e-1 1.155884900000000e-1
1.213836600000000e-1 1.274552900000000e-1 1.338143600000000e-1 1.404719400000000e-1
1.474391200000000e-1 1.547269700000000e-1 1.623463900000000e-1 1.703080800000000e-1
1.786223900000000e-1 1.872991900000000e-1 1.963477400000000e-1 2.057765300000000e-1
2.155930700000000e-1 2.258037400000000e-1 2.364135300000000e-1 2.474258300000000e-1
2.588422000000000e-1 2.706620900000000e-1 2.828825900000000e-1 2.954981700000000e-1
3.085004300000000e-1 3.218778500000000e-1 3.356155800000000e-1 3.496952400000000e-1
3.640947900000000e-1 3.787884200000000e-1 3.937465400000000e-1 4.089357700000000e-1
4.243190600000000e-1 4.398558000000000e-1 4.555020600000000e-1 4.712107899999999e-1
4.869320600000000e-1 5.026132700000000e-1 5.181993200000000e-1 5.336327199999999e-1
5.488535199999999e-1 5.637992900000000e-1 5.784048200000001e-1 5.926018800000000e-1
6.063189300000000e-1 6.194808400000000e-1 6.320087200000000e-1 6.438199600000000e-1
6.548284800000000e-1 6.649452000000000e-1 6.740788100000001e-1 6.821367100000000e-1
6.890261400000000e-1 6.946554600000000e-1 6.989354800000001e-1 7.017808100000000e-1
7.031113000000000e-1 7.028534600000000e-1 7.009418600000000e-1 6.973206300000000e-1
6.919448099999999e-1 6.847817699999999e-1 6.758125300000000e-1 6.650329400000000e-1
6.524547800000001e-1 6.381067000000000e-1 6.220348599999999e-1 6.043033900000000e-1
5.849945900000000e-1 5.642087000000000e-1 5.420634700000000e-1 5.186932100000000e-1
4.942476100000000e-1 4.688901200000000e-1 4.427960100000000e-1 4.161501400000000e-1
3.891445200000000e-1 3.619757300000000e-1 3.348423100000000e-1 3.079421000000000e-1
2.814697900000000e-1 2.556144900000000e-1 2.305573600000000e-1 2.064691600000000e-1
1.835074300000000e-1 1.618131700000000e-1 1.415069300000000e-1 1.226845900000000e-1
1.054135000000000e-1 8.973004000000000e-2 7.563914800000000e-2 6.311611900000001e-2
5.210999699999999e-2 4.254773800000001e-2 3.433849000000000e-2 2.737777100000000e-2
2.155155200000000e-2 1.674025600000000e-2 1.282258500000000e-2 9.679039100000001e-3
7.194996500000000e-3 5.263240600000000e-3 3.785866500000000e-3 2.675547300000000e-3
1.856169200000000e-3 1.262931000000000e-3 8.418610700000000e-4 5.491417799999999e-4
3.501619800000000e-4 2.180642200000000e-4 1.324777100000000e-4 7.841462300000002e-5
4.516171000000000e-5 2.527280300000001e-5 1.372157900000000e-5 7.216492800000001e-6
3.670233400000000e-6 0.000000000000000e0 0.000000000000000e0 0.000000000000000e0
0.000000000000000e0 0.000000000000000e0 0.000000000000000e0 0.000000000000000e0
0.000000000000000e0 0.000000000000000e0 0.000000000000000e0 0.000000000000000e0
0.000000000000000e0 0.000000000000000e0 0.000000000000000e0 0.000000000000000e0
0.000000000000000e0 0.000000000000000e0 0.000000000000000e0 0.000000000000000e0
0.000000000000000e0 0.000000000000000e0 0.000000000000000e0
</PP_CHI.1>
</PP_PSWFC>
<PP_RHOATOM>
3.075301610980000e-7 3.398733874390000e-7 3.756181803560000e-7 4.151222967100000e-7
4.587810901689999e-7 5.070315228169999e-7 5.603564909579999e-7 6.192896886790001e-7
6.844209384090001e-7 7.564020765160000e-7 8.359535415949999e-7 9.238714715040002e-7
1.021035878550000e-6 1.128419040080000e-6 1.247095720140000e-6 1.378253694090000e-6
1.523205702800000e-6 1.683402192110000e-6 1.860446896320000e-6 2.056111366880000e-6
2.272353646520000e-6 2.511338429230000e-6 2.775457373679999e-6 3.067353621550000e-6
3.389948579470000e-6 3.746470710630000e-6 4.140488362759999e-6 4.575944325830000e-6
5.057197239330000e-6 5.589063374400000e-6 6.176865208900000e-6 6.826485554720001e-6
7.544425712260000e-6 8.337870503879998e-6 9.214760507190000e-6 1.018387168530000e-5
1.125490177400000e-5 1.243856934940000e-5 1.374671894660000e-5 1.519244258970000e-5
1.679020774930000e-5 1.855600187520000e-5 2.050749701320000e-5 2.266421878730000e-5
2.504774977869999e-5 2.768193956550000e-5 3.059314685790000e-5 3.381049885070000e-5
3.736618935850000e-5 4.129579067760000e-5 4.563862181790000e-5 5.043812844280001e-5
5.574232518170000e-5 6.160427521770001e-5 6.808261663620002e-5 7.524214985830001e-5
8.315448493620002e-5 9.189875819550000e-5 1.015624156410000e-4 1.122420953470000e-4
1.240445745010000e-4 1.370878716530000e-4 1.515023724770000e-4 1.674321612350000e-4
1.850364398960000e-4 2.044911440020000e-4 2.259906380099999e-4 2.497496956480000e-4
2.760055911890000e-4 3.050204266480000e-4 3.370837982650000e-4 3.725156308410000e-4
4.116694101710000e-4 4.549355404920000e-4 5.027453216520001e-4 5.555751642920001e-4
6.139511175730000e-4 6.784543877830000e-4 7.497266086500001e-4 8.284763440600001e-4
9.154860489999999e-4 1.011619473190000e-3 1.117830216230000e-3 1.235170673550000e-3
1.364802464490000e-3 1.508007325620000e-3 1.666199496280000e-3 1.840938909190000e-3
2.033946048700000e-3 2.247117789440000e-3 2.482545572519999e-3 2.742533946550000e-3
3.029622204339999e-3 3.346606996220000e-3 3.696567283560000e-3 4.082891912000000e-3
4.509308507420000e-3 4.979916014990000e-3 5.499218527900000e-3 6.072163178940000e-3
6.704179483930000e-3 7.401221809370000e-3 8.169815915320001e-3 9.017106276820000e-3
9.950907001419999e-3 1.097975581350000e-2 1.211296807270000e-2 1.336069902050000e-2
1.473399291500000e-2 1.624485094900000e-2 1.790628294220000e-2 1.973236592740000e-2
2.173829410640000e-2 2.394043524540000e-2 2.635635034600000e-2 2.900484211330000e-2
3.190595820930000e-2 3.508098657470000e-2 3.855243500310000e-2 4.234398029879999e-2
4.648037183200000e-2 5.098732899800000e-2 5.589135716710000e-2 6.121954135120000e-2
6.699928450080001e-2 7.325796696319999e-2 8.002255972510000e-2 8.731916847330000e-2
9.517251531019999e-2 1.036053503210000e-1 1.126378175390000e-1 1.222867608790000e-1
1.325650161050000e-1 1.434806671260000e-1 1.550363377620000e-1 1.672284639850000e-1
1.800466646790000e-1 1.934731247940000e-1 2.074821266640000e-1 2.220396086120000e-1
2.371028310560000e-1 2.526200991800000e-1 2.685305352480000e-1 2.847638798550000e-1
3.012401864160000e-1 3.178696394050000e-1 3.345521357990000e-1 3.511769881800000e-1
3.676226448760000e-1 3.837565111270000e-1 3.994350221560000e-1 4.145041408940000e-1
4.288003382190000e-1 4.421521190030000e-1 4.543822420910000e-1 4.653104911300000e-1
4.747570216030000e-1 4.825462081080000e-1 4.885108052030000e-1 4.924963052840000e-1
4.943655001880000e-1 4.940029862340000e-1 4.913194911000000e-1 4.862560610240000e-1
4.787876200860000e-1 4.689260725240000e-1 4.567225757050000e-1 4.422688112850000e-1
4.256972399450000e-1 4.071801605850000e-1 3.869273670550000e-1 3.651825871650000e-1
3.422186703290000e-1 3.183314571560000e-1 2.938328055080000e-1 2.690426461000000e-1
2.442806999910000e-1 2.198579446340000e-1 1.960683064720000e-1 1.731809390220000e-1
1.514334574460000e-1 1.310264291090000e-1 1.121193725660000e-1 9.482833695240000e-2
7.922524268260000e-2 6.533876749799999e-2 5.315669625020001e-2 4.262951403110000e-2
3.367497686520000e-2 2.618350198540000e-2 2.002421123800000e-2 1.505150862350000e-2
1.111200598220000e-2 8.051480078399999e-3 5.721280710170000e-3 3.983644477620000e-3
2.715451787340000e-3 1.810310008920000e-3 1.179131895480000e-3 7.495423449280000e-4
4.644693936089999e-4 2.802361709460000e-4 1.644186860820000e-4 9.368379789930000e-5
5.176797463500000e-5 2.770170161350000e-5 1.433278515580000e-5 7.158553354540000e-6
3.445364099029999e-6 1.594994710760000e-6 7.087300611820001e-7 3.015566945420000e-7
1.226134122380000e-7 4.755200404420000e-8 1.755034364680000e-8 6.148853100230001e-9
2.039580050120001e-9 6.387145714769998e-10 1.882817302530000e-10 5.207776833250001e-11
1.347061321050000e-11 0.000000000000000e0 0.000000000000000e0 0.000000000000000e0
0.000000000000000e0 0.000000000000000e0 0.000000000000000e0 0.000000000000000e0
0.000000000000000e0 0.000000000000000e0 0.000000000000000e0 0.000000000000000e0
0.000000000000000e0 0.000000000000000e0 0.000000000000000e0 0.000000000000000e0
0.000000000000000e0 0.000000000000000e0 0.000000000000000e0 0.000000000000000e0
0.000000000000000e0 0.000000000000000e0 0.000000000000000e0
</PP_RHOATOM>
</UPF>
