<UPF version="2.0.1">
<PP_INFO>
Generated by new atomic code, or converted to UPF format
Author:
Generation date:
Pseudopotential type: NC
Element: Na
Functional:  SLA  PZ   NOGX NOGC
Suggested minimum cutoff for wavefunctions:   0. Ry
Suggested minimum cutoff for charge density:   0. Ry
The Pseudo was generated with a Non-Relativistic Calculation
L component and cutoff radius for Local Potential:  0   0.0000
Valence configuration:
nl pn  l   occ       Rcut    Rcut US       E pseu
3S  0  0  1.00      0.000      0.000     0.000000
Generation configuration: not available.
</PP_INFO>
<!--
END OF HUMAN READABLE SECTION
-->
<PP_HEADER generated="Generated by new atomic code, or converted to UPF format" author="" date="" comment="" element="Na" pseudo_type="NC" relativistic="no" is_ultrasoft="false" is_paw="false" is_coulomb="false" has_so="false" has_wfc="false" has_gipaw="false" paw_as_gipaw="false" core_correction="true" functional=" SLA  PZ   NOGX NOGC" z_valence="1.000000000000e0" total_psenergy="0.000000000000e0" wfc_cutoff="0.000000000000e0" rho_cutoff="0.000000000000e0" l_max="0" l_max_rho="0" l_local="0" mesh_size="169" number_of_wfc="1" number_of_proj="1"/>
<PP_MESH dx="6.250000000002e-2" mesh="169" xmin="-4.000000000002e0" rmax="6.046742118590e1" zmesh="1.100000000000e1">
<PP_R>
1.665058080790000e-3 1.772445100780000e-3 1.886757988520000e-3 2.008443424100000e-3
2.137976896000000e-3 2.275864559090000e-3 2.422645212400000e-3 2.578892404520000e-3
2.745216674760000e-3 2.922267938810000e-3 3.110738028330000e-3 3.311363394310000e-3
3.524927984700000e-3 3.752266307800000e-3 3.994266693040000e-3 4.251874762180000e-3
4.526097124349999e-3 4.818005309400000e-3 5.128739954890000e-3 5.459515263209999e-3
5.811623746060000e-3 6.186441275000000e-3 6.585432457660000e-3 7.010156360760000e-3
7.462272602170001e-3 7.943547835950000e-3 8.455862655510000e-3 9.001218942169999e-3
9.581747687440000e-3 1.019971732000000e-2 1.085754256970000e-2 1.155779390290000e-2
1.230320756700000e-2 1.309669628200000e-2 1.394136062230000e-2 1.484050113220000e-2
1.579763122280000e-2 1.681649090070000e-2 1.790106138220000e-2 1.905558065010000e-2
2.028456001350000e-2 2.159280173600000e-2 2.298541780040000e-2 2.446784988450000e-2
2.604589062370000e-2 2.772570624650000e-2 2.951386066890000e-2 3.141734114340000e-2
3.344358556100000e-2 3.560051151610000e-2 3.789654724350000e-2 4.034066455280000e-2
4.294241388550000e-2 4.571196163370000e-2 4.866012986539999e-2 5.179843861190000e-2
5.513915088300000e-2 5.869532058440000e-2 6.248084352649999e-2 6.651051172239999e-2
7.080007118830000e-2 7.536628347090001e-2 8.022699114409999e-2 8.540118752850001e-2
9.090909090909999e-2 9.677222353800000e-2 1.030134957330000e-1 1.096572954020000e-1
1.167295833350000e-1 1.242579946520000e-1 1.322719467830000e-1 1.408027544210000e-1
1.498837518820000e-1 1.595504233600000e-1 1.698405415850000e-1 1.807943154170000e-1
1.924545469650000e-1 2.048667988380000e-1 2.180795721790000e-1 2.321444961880000e-1
2.471165298600000e-1 2.630541767430000e-1 2.800197135380000e-1 2.980794334490000e-1
3.173039052240000e-1 3.377682489040000e-1 3.595524293560000e-1 3.827415687400000e-1
4.074262791220001e-1 4.337030165430000e-1 4.616744579250000e-1 4.914499022860000e-1
5.231456978190000e-1 5.568856965349999e-1 5.928017382120000e-1 6.310341655629999e-1
6.717323726300000e-1 7.150553885399999e-1 7.611724989210000e-1 8.102639073820001e-1
8.625214396690000e-1 9.181492932250000e-1 9.773648350980000e-1 1.040399451300000e0
1.107499450970000e0 1.178927028820000e0 1.254961289640000e0 1.335899338980000e0
1.422057444020000e0 1.513772269420000e0 1.611402192860000e0 1.715328705390000e0
1.825957902110000e0 1.943722069010000e0 2.069081372140000e0 2.202525655690000e0
2.344576356110000e0 2.495788539590000e0 2.656753071020000e0 2.828098922820000e0
3.010495632610000e0 3.204655919510000e0 3.411338469050000e0 3.631350897800000e0
3.865552909100000e0 4.114859652390000e0 4.380245299190000e0 4.662746849690000e0
4.963468184830000e0 5.283584379770000e0 5.624346295490000e0 5.987085466580000e0
6.373219304240000e0 6.784256634840000e0 7.221803595660000e0 7.687569910970000e0
8.183375572770000e0 8.711157952460001e0 9.272979371150001e0 9.871035158250001e0
1.050766222970000e1 1.118534821970000e1 1.190674120100000e1 1.267466003220000e1
1.349210537300000e1 1.436227140870000e1 1.528855833200000e1 1.627458562920000e1
1.732420622350000e1 1.844152153010000e1 1.963089748280000e1 2.089698159400000e1
2.224472111490000e1 2.367938236700000e1 2.520657132030000e1 2.683225549880000e1
2.856278729870001e1 3.040492881070000e1 3.236587824280000e1 3.445329804750000e1
3.667534486300000e1 3.904070138550000e1 4.155861029720000e1 4.423891038170001e1
4.709207496980000e1 5.012925286430001e1 5.336231190380000e1 5.680388533660000e1
6.046742118590000e1
</PP_R>
<PP_RAB>
1.040661300500000e-4 1.107778187990000e-4 1.179223742820000e-4 1.255277140060000e-4
1.336235560000000e-4 1.422415349430000e-4 1.514153257750000e-4 1.611807752820000e-4
1.715760421720000e-4 1.826417461750000e-4 1.944211267710000e-4 2.069602121440000e-4
2.203079990440000e-4 2.345166442370000e-4 2.496416683150000e-4 2.657421726360000e-4
2.828810702720000e-4 3.011253318370000e-4 3.205462471810000e-4 3.412197039510000e-4
3.632264841290000e-4 3.866525796880000e-4 4.115895286040000e-4 4.381347725470000e-4
4.663920376360000e-4 4.964717397470000e-4 5.284914159700000e-4 5.625761838850000e-4
5.988592304650000e-4 6.374823325020000e-4 6.785964106060000e-4 7.223621189320001e-4
7.689504729349999e-4 8.185435176220000e-4 8.713350388920000e-4 9.275313207610001e-4
9.873519514230001e-4 1.051030681290000e-3 1.118816336390000e-3 1.190973790630000e-3
1.267785000840000e-3 1.349550108500000e-3 1.436588612530000e-3 1.529240617780000e-3
1.627868163980000e-3 1.732856640400000e-3 1.844616291810000e-3 1.963583821460000e-3
2.090224097570000e-3 2.225031969750000e-3 2.368534202719999e-3 2.521291534550000e-3
2.683900867850000e-3 2.856997602110000e-3 3.041258116590000e-3 3.237402413239999e-3
3.446196930190000e-3 3.668457536520000e-3 3.905052720400000e-3 4.156906982650000e-3
4.425004449270000e-3 4.710392716930000e-3 5.014186946500000e-3 5.337574220530001e-3
5.681818181820000e-3 6.048263971120001e-3 6.438343483330000e-3 6.853580962620000e-3
7.295598958450000e-3 7.766124665760000e-3 8.266996673970000e-3 8.800172151330001e-3
9.367734492610001e-3 9.971901460000000e-3 1.061503384900000e-2 1.129964471350000e-2
1.202840918530000e-2 1.280417492730000e-2 1.362997326120000e-2 1.450903101170000e-2
1.544478311620000e-2 1.644088604640000e-2 1.750123209610000e-2 1.862996459060000e-2
1.983149407650000e-2 2.111051555650000e-2 2.247202683480000e-2 2.392134804630000e-2
2.546414244510000e-2 2.710643853390000e-2 2.885465362030000e-2 3.071561889280000e-2
3.269660611370000e-2 3.480535603340000e-2 3.705010863820000e-2 3.943963534770000e-2
4.198327328940000e-2 4.469096178380000e-2 4.757328118250000e-2 5.064149421140000e-2
5.390758997930000e-2 5.738433082660000e-2 6.108530219360000e-2 6.502496570640000e-2
6.921871568580000e-2 7.368293930100000e-2 7.843508060270000e-2 8.349370868630000e-2
8.887859025110000e-2 9.461076683870001e-2 1.007126370540000e-1 1.072080440870000e-1
1.141223688820000e-1 1.214826293130000e-1 1.293175857590000e-1 1.376578534810000e-1
1.465360222570000e-1 1.559867837240000e-1 1.660470669390000e-1 1.767561826760000e-1
1.881559770380000e-1 2.002909949690000e-1 2.132086543160000e-1 2.269594311130000e-1
2.415970568190000e-1 2.571787282740000e-1 2.737653311990000e-1 2.914216781060000e-1
3.102167615520000e-1 3.302240237350000e-1 3.515216434680000e-1 3.741928416610000e-1
3.983262065150000e-1 4.240160396770000e-1 4.513627247290001e-1 4.804731194360000e-1
5.114609732980000e-1 5.444473720290000e-1 5.795612106969999e-1 6.169396973910000e-1
6.567288893590000e-1 6.990842637340000e-1 7.441713250610000e-1 7.921662520129999e-1
8.432565858100000e-1 8.976419630410000e-1 9.555348957490001e-1 1.017161601830000e0
1.082762888970000e0 1.152595095630000e0 1.226931092670000e0 1.306061349630000e0
1.390295069680000e0 1.479961397940000e0 1.575410707520000e0 1.677015968670000e0
1.785174206170000e0 1.900308050670000e0 2.022867390170000e0 2.153331127970000e0
2.292209053940000e0 2.440043836600000e0 2.597413143570000e0 2.764931898850000e0
2.943254685620000e0 3.133078304020000e0 3.335144493990000e0 3.550242833540000e0
3.779213824120000e0
</PP_RAB>
</PP_MESH>
<PP_NLCC columns="4">
2.068800397560000e-2 2.068800450490000e-2 2.068800510470000e-2 2.068800578440000e-2
2.068800655460000e-2 2.068800742730000e-2 2.068800841620000e-2 2.068800953680000e-2
2.068801080650000e-2 2.068801224530000e-2 2.068801387570000e-2 2.068801572320000e-2
2.068801781660000e-2 2.068802018870000e-2 2.068802287660000e-2 2.068802592240000e-2
2.068802937360000e-2 2.068803328430000e-2 2.068803771560000e-2 2.068804273670000e-2
2.068804842630000e-2 2.068805487320000e-2 2.068806217820000e-2 2.068807045540000e-2
2.068807983430000e-2 2.068809046140000e-2 2.068810250270000e-2 2.068811614630000e-2
2.068813160520000e-2 2.068814912080000e-2 2.068816896640000e-2 2.068819145180000e-2
2.068821692760000e-2 2.068824579100000e-2 2.068827849180000e-2 2.068831553930000e-2
2.068835751010000e-2 2.068840505710000e-2 2.068845891940000e-2 2.068851993340000e-2
2.068858904550000e-2 2.068866732690000e-2 2.068875598900000e-2 2.068885640190000e-2
2.068897011490000e-2 2.068909887890000e-2 2.068924467260000e-2 2.068940973080000e-2
2.068959657650000e-2 2.068980805710000e-2 2.069004738330000e-2 2.069031817430000e-2
2.069062450550000e-2 2.069097096310000e-2 2.069136270230000e-2 2.069180551160000e-2
2.069230588200000e-2 2.069287108160000e-2 2.069350923360000e-2 2.069422939940000e-2
2.069504166220000e-2 2.069595721140000e-2 2.069698842300000e-2 2.069814893260000e-2
2.069945369370000e-2 2.070091901350000e-2 2.070256255470000e-2 2.070440328760000e-2
2.070646137250000e-2 2.070875794670000e-2 2.071131477940000e-2 2.071415375210000e-2
2.071729610410000e-2 2.072076136990000e-2 2.072456591110000e-2 2.072872092230000e-2
2.073322975490000e-2 2.073808436370000e-2 2.074326063070000e-2 2.074871225970000e-2
2.075436286230000e-2 2.076009576760000e-2 2.076574098690000e-2 2.077105864580000e-2
2.077571806590000e-2 2.077927153700000e-2 2.078112167710000e-2 2.078048114910000e-2
2.077632340250000e-2 2.076732308300000e-2 2.075178484090000e-2 2.072755954840000e-2
2.069194750100000e-2 2.064158915650000e-2 2.057234551880000e-2 2.047917259290000e-2
2.035599762440000e-2 2.019560929910000e-2 1.998957982720000e-2 1.972824385290000e-2
1.940076708160000e-2 1.899534557320000e-2 1.849958327580000e-2 1.790109802990000e-2
1.718840128190000e-2 1.635207933910000e-2 1.538626881080000e-2 1.429036131570000e-2
1.307079107900000e-2 1.174265887770000e-2 1.033084300240000e-2 8.870172931859999e-3
7.404238871070000e-3 5.982531070530000e-3 4.655884986470000e-3 3.470646834650000e-3
2.462488298280000e-3 1.651218507030000e-3 1.038037667680000e-3 6.062610501740000e-4
3.256061706680000e-4 1.589575623850000e-4 6.962067574090002e-5 2.695458566560000e-5
9.071727241590001e-6 2.604230882030000e-6 6.241461015829999e-7 1.218894687160000e-7
1.887041632340000e-8 2.244990160850000e-9 1.981327613780000e-10 1.246430291510000e-11
5.342065591430000e-13 1.481942126560000e-14 0.000000000000000e0 0.000000000000000e0
0.000000000000000e0 0.000000000000000e0 0.000000000000000e0 0.000000000000000e0
0.000000000000000e0 0.000000000000000e0 0.000000000000000e0 0.000000000000000e0
0.000000000000000e0 0.000000000000000e0 0.000000000000000e0 0.000000000000000e0
0.000000000000000e0 0.000000000000000e0 0.000000000000000e0 0.000000000000000e0
0.000000000000000e0 0.000000000000000e0 0.000000000000000e0 0.000000000000000e0
0.000000000000000e0 0.000000000000000e0 0.000000000000000e0 0.000000000000000e0
0.000000000000000e0 0.000000000000000e0 0.000000000000000e0 0.000000000000000e0
0.000000000000000e0 0.000000000000000e0 0.000000000000000e0 0.000000000000000e0
0.000000000000000e0
</PP_NLCC>
<PP_LOCAL columns="4">
-1.491099345250000e0 -1.491098603960000e0 -1.491097763970000e0 -1.491096812140000e0
-1.491095733570000e0 -1.491094511400000e0 -1.491093126490000e0 -1.491091557190000e0
-1.491089778950000e0 -1.491087763930000e0 -1.491085480620000e0 -1.491082893300000e0
-1.491079961480000e0 -1.491076639310000e0 -1.491072874800000e0 -1.491068609070000e0
-1.491063775370000e0 -1.491058298100000e0 -1.491052091560000e0 -1.491045058670000e0
-1.491037089400000e0 -1.491028059090000e0 -1.491017826470000e0 -1.491006231490000e0
-1.490993092770000e0 -1.490978204800000e0 -1.490961334720000e0 -1.490942218650000e0
-1.490920557620000e0 -1.490896012870000e0 -1.490868200540000e0 -1.490836685710000e0
-1.490800975580000e0 -1.490760511810000e0 -1.490714661770000e0 -1.490662708670000e0
-1.490603840440000e0 -1.490537136980000e0 -1.490461555910000e0 -1.490375916260000e0
-1.490278880160000e0 -1.490168931990000e0 -1.490044354840000e0 -1.489903203840000e0
-1.489743276010000e0 -1.489562076150000e0 -1.489356778190000e0 -1.489124181550000e0
-1.488860661810000e0 -1.488562114880000e0 -1.488223893980000e0 -1.487840738460000e0
-1.487406693440000e0 -1.486915019090000e0 -1.486358088440000e0 -1.485727272070000e0
-1.485012808430000e0 -1.484203657800000e0 -1.483287338230000e0 -1.482249741340000e0
-1.481074925790000e0 -1.479744886080000e0 -1.478239294170000e0 -1.476535211380000e0
-1.474606767730000e0 -1.472424806260000e0 -1.469956489590000e0 -1.467164866420000e0
-1.464008396070000e0 -1.460440429650000e0 -1.456408647770000e0 -1.451854455710000e0
-1.446712339180000e0 -1.440909186570000e0 -1.434363586850000e0 -1.426985117360000e0
-1.418673641720000e0 -1.409318646150000e0 -1.398798652470000e0 -1.386980758930000e0
-1.373720375730000e0 -1.358861241550000e0 -1.342235830630000e0 -1.323666287990000e0
-1.302966062130000e0 -1.279942441450000e0 -1.254400239390000e0 -1.226146914500000e0
-1.194999449120000e0 -1.160793340480000e0 -1.123394070650000e0 -1.082711405200000e0
-1.038716806670000e0 -9.914641151580000e-1 -9.411134162930001e-1 -8.879576509500000e-1
-8.324509865630001e-1 -7.752372322739999e-1 -7.171756209030001e-1 -6.593601109890001e-1
-6.031270490520000e-1 -5.500447302240000e-1 -5.018773833120001e-1 -4.605158194880000e-1
-4.278680232230000e-1 -4.057060555470001e-1 -3.954715001680000e-1 -3.980507554400000e-1
-4.135435083770000e-1 -4.410612403770000e-1 -4.786044046250000e-1 -5.230719260930000e-1
-5.704487077700000e-1 -6.161905580950000e-1 -6.557803466780000e-1 -6.853714247990000e-1
-7.023820130150000e-1 -7.058826234060001e-1 -6.966505034310000e-1 -6.768554263380000e-1
-6.494641266740000e-1 -6.175527974430000e-1 -5.837428070390000e-1 -5.499044949810000e-1
-5.171451501140000e-1 -4.859846366630000e-1 -4.565840129460000e-1 -4.289299548780000e-1
-4.029438475730000e-1 -3.785308911630000e-1 -3.555968798060000e-1 -3.340523550020000e-1
-3.138131459970000e-1 -2.948001686330000e-1 -2.769391293340000e-1 -2.601602357000000e-1
-2.443979238410000e-1 -2.295906021810000e-1 -2.156804107880000e-1 -2.026129952870000e-1
-1.903372944690000e-1 -1.788053407640000e-1 -1.679720728150000e-1 -1.577951593900000e-1
-1.482348339800000e-1 -1.392537394050000e-1 -1.308167818420000e-1 -1.228909936980000e-1
-1.154454047820000e-1 -1.084509212940000e-1 -1.018802121380000e-1 -9.570760212440000e-2
-8.990897164620000e-2 -8.446166242859999e-2 -7.934438899230000e-2 -7.453715548040001e-2
-7.002117752320000e-2 -6.577880883890000e-2 -6.179347227959999e-2 -5.804959505600000e-2
-5.453254788670000e-2 -5.122858783320000e-2 -4.812480460000001e-2 -4.520907008660000e-2
-4.246999099700000e-2 -3.989686432020001e-2 -3.747963550770000e-2 -3.520885918540000e-2
-3.307566224550000e-2
</PP_LOCAL>
<PP_NONLOCAL>
<PP_BETA.1 index="1" label="3S" angular_momentum="0" cutoff_radius_index="141" cutoff_radius="0.000000000000e0" ultrasoft_cutoff_radius="0.000000000000e0">
7.929659225950001e-4 8.441078291380000e-4 8.985480715400001e-4 9.564994540460001e-4
1.018188360300000e-3 1.083855914060000e-3 1.153758580040000e-3 1.228169604000000e-3
1.307379689360000e-3 1.391698436650000e-3 1.481455273720000e-3 1.577000894210000e-3
1.678708610620000e-3 1.786975960960000e-3 1.902225975390000e-3 2.024908950430000e-3
2.155504306680000e-3 2.294522275390000e-3 2.442506176600000e-3 2.600034101400000e-3
2.767721778530000e-3 2.946224335200000e-3 3.136239241040000e-3 3.338508992600000e-3
3.553823961600000e-3 3.783025490320000e-3 4.027009232699999e-3 4.286728400250000e-3
4.563197927980000e-3 4.857498031680000e-3 5.170778679470001e-3 5.504263956500001e-3
5.859256911599999e-3 6.237144626190000e-3 6.639403668150000e-3 7.067605668490000e-3
7.523423858750000e-3 8.008638946790001e-3 8.525147029589998e-3 9.074966219850001e-3
9.660244085430001e-3 1.028326748680000e-2 1.094647079890000e-2 1.165244485480000e-2
1.240394733030000e-2 1.320391451530000e-2 1.405547102100000e-2 1.496194327510000e-2
1.592687247650000e-2 1.695402605080000e-2 1.804741593930000e-2 1.921131170040000e-2
2.045025923310000e-2 2.176909303140000e-2 2.317296367950000e-2 2.466734808270000e-2
2.625807753780000e-2 2.795135690010000e-2 2.975378944030000e-2 3.167239902160000e-2
3.371466132830000e-2 3.588852529510000e-2 3.820244866380000e-2 4.066542238170000e-2
4.328700622910000e-2 4.607735885120000e-2 4.904727343030000e-2 5.220820768849999e-2
5.557232038700000e-2 5.915249944710000e-2 6.296239645430001e-2 6.701644643560000e-2
7.132988814870000e-2 7.591877418119999e-2 8.079996045210001e-2 8.599108790430000e-2
9.151050602560000e-2 9.737720037499999e-2 1.036106408820000e-1 1.102305337000000e-1
1.172565150660000e-1 1.247076673620000e-1 1.326019012170000e-1 1.409550668620000e-1
1.497797372410000e-1 1.590836125280000e-1 1.688673777960000e-1 1.791218951190000e-1
1.898245323200000e-1 2.009344480330000e-1 2.123865925310000e-1 2.240842917910000e-1
2.358900975000000e-1 2.476149905660000e-1 2.590059656430000e-1 2.697325832760000e-1
2.793735070790000e-1 2.874049267700000e-1 2.931939792700000e-1 2.960016035550000e-1
2.950009273120000e-1 2.893185079830000e-1 2.781061942220000e-1 2.606497259960000e-1
2.365146996700000e-1 2.057213423210000e-1 1.689233571140000e-1 1.275486898580000e-1
8.384319541349999e-2 4.075423485440000e-2 1.610839578290000e-3 -3.039157881640000e-2
-5.281621901859999e-2 -6.455499938589999e-2 -6.614232744580000e-2 -5.965665535109999e-2
-4.818912744209999e-2 -3.503599345730000e-2 -2.290052367810000e-2 -1.338959923630000e-2
-6.947999438179999e-3 -3.166793334259999e-3 -1.251722338110000e-3 -4.225964793030000e-4
-1.197155151820000e-4 -2.787639638170000e-5 -5.210618508849998e-6 -7.608637887020000e-7
-8.413930133890002e-8 -6.801066348850000e-9 -3.859415134610001e-10 -1.468654576160000e-11
-3.557663975810001e-13 -5.170699706180001e-15 -4.508688311590000e-17 0.000000000000000e0
0.000000000000000e0 0.000000000000000e0 0.000000000000000e0 0.000000000000000e0
0.000000000000000e0 0.000000000000000e0 0.000000000000000e0 0.000000000000000e0
0.000000000000000e0 0.000000000000000e0 0.000000000000000e0 0.000000000000000e0
0.000000000000000e0 0.000000000000000e0 0.000000000000000e0 0.000000000000000e0
0.000000000000000e0 0.000000000000000e0 0.000000000000000e0 0.000000000000000e0
0.000000000000000e0 0.000000000000000e0 0.000000000000000e0 0.000000000000000e0
0.000000000000000e0 0.000000000000000e0 0.000000000000000e0 0.000000000000000e0
0.000000000000000e0 0.000000000000000e0 0.000000000000000e0 0.000000000000000e0
0.000000000000000e0
</PP_BETA.1>
<PP_DIJ>
3.206769562690001e2
</PP_DIJ>
</PP_NONLOCAL>
<PP_PSWFC>
<PP_CHI.1 index="1" label="3S" l="0" occupation="1.000000000000e0" n="0" pseudo_energy="0.000000000000e0" cutoff_radius="0.000000000000e0" ultrasoft_cutoff_radius="0.000000000000e0">
9.351573799999999e-5 9.954702899999999e-5 1.059673100000000e-4 1.128016800000000e-4
1.200768400000000e-4 1.278212300000000e-4 1.360651000000000e-4 1.448406800000000e-4
1.541822600000000e-4 1.641263600000000e-4 1.747118400000000e-4 1.859800700000000e-4
1.979750900000000e-4 2.107438000000000e-4 2.243361100000000e-4 2.388051500000000e-4
2.542074900000000e-4 2.706033400000000e-4 2.880568200000000e-4 3.066361600000000e-4
3.264140400000000e-4 3.474678000000000e-4 3.698797900000000e-4 3.937376900000000e-4
4.191348500000000e-4 4.461706599999999e-4 4.749509500000000e-4 5.055883799999999e-4
5.382029400000000e-4 5.729223800000001e-4 6.098827500000001e-4 6.492289300000000e-4
6.911152199999999e-4 7.357059599999999e-4 7.831761999999999e-4 8.337123900000000e-4
8.875131900000000e-4 9.447902100000000e-4 1.005769000000000e-3 1.070689900000000e-3
1.139809000000000e-3 1.213399400000000e-3 1.291752300000000e-3 1.375178200000000e-3
1.464008300000000e-3 1.558596100000000e-3 1.659318800000000e-3 1.766579200000000e-3
1.880807600000000e-3 2.002463600000000e-3 2.132038800000000e-3 2.270059000000000e-3
2.417087200000001e-3 2.573726000000000e-3 2.740622000000000e-3 2.918468400000000e-3
3.108010000000000e-3 3.310047500000000e-3 3.525442900000000e-3 3.755125100000000e-3
4.000097200000000e-3 4.261443400000001e-3 4.540338500000001e-3 4.838057200000000e-3
5.155986100000000e-3 5.495636699999999e-3 5.858661100000000e-3 6.246869500000001e-3
6.662251499999999e-3 7.107000100000000e-3 7.583541000000000e-3 8.094565700000000e-3
8.643071500000000e-3 9.232408700000001e-3 9.866335700000000e-3 1.054908600000000e-2
1.128544400000000e-2 1.208084100000000e-2 1.294146600000000e-2 1.387439500000000e-2
1.488775100000000e-2 1.599088900000000e-2 1.719462300000000e-2 1.851149200000000e-2
1.995607500000000e-2 2.154537000000000e-2 2.329924100000000e-2 2.524094799999999e-2
2.739776900000000e-2 2.980172900000000e-2 3.249044400000000e-2 3.550810100000001e-2
3.890655600000001e-2 4.274656700000000e-2 4.709912300000000e-2 5.204683700000000e-2
5.768531300000000e-2 6.412435100000000e-2 7.148879700000000e-2 7.991873300000001e-2
8.956861200000001e-2 1.006048000000000e-1 1.132008900000000e-1 1.275301100000000e-1
1.437540300000000e-1 1.620072900000000e-1 1.823780600000000e-1 2.048851800000000e-1
2.294537200000000e-1 2.558920700000000e-1 2.838747700000000e-1 3.129360100000000e-1
3.424777000000000e-1 3.717945600000000e-1 4.001143900000000e-1 4.266484999999999e-1
4.506434100000000e-1 4.714245100000000e-1 4.884245400000000e-1 5.011942700000001e-1
5.093990100000000e-1 5.128083900000000e-1 5.112879200000000e-1 5.047977800000000e-1
4.933991400000000e-1 4.772645700000000e-1 4.566872600000000e-1 4.320849100000000e-1
4.039960300000000e-1 3.730679800000000e-1 3.400369800000000e-1 3.057010600000000e-1
2.708870900000000e-1 2.364138200000000e-1 2.030532700000000e-1 1.714935900000000e-1
1.423067300000000e-1 1.159240400000000e-1 9.262228100000002e-2 7.252151699999999e-2
5.559478000000000e-2 4.168801999999999e-2 3.054761800000000e-2 2.185196500000000e-2
1.524342700000000e-2 1.035745100000000e-2 6.846369899999999e-3 4.396587600000000e-3
2.738862700000000e-3 1.652323400000000e-3 9.634421700000001e-4 5.415781300000000e-4
2.932460500000000e-4 1.526198800000000e-4 7.615262800000000e-5 3.633011499999999e-5
1.652307300000000e-5 7.141767400000000e-6 2.923935000000000e-6 1.129880900000000e-6
4.105314500000000e-7 1.396799300000000e-7 4.430843299999999e-8 1.304218400000000e-8
3.544841200000000e-9 8.882268999999997e-10 2.201008300000001e-10 4.974911800000001e-11
1.019620100000000e-11
</PP_CHI.1>
</PP_PSWFC>
<PP_RHOATOM>
8.745193253680000e-9 9.909610982730001e-9 1.122907078860000e-8 1.272421901080000e-8
1.441844750440000e-8 1.633826683870000e-8 1.851371143800000e-8 2.097882258290000e-8
2.377216929870000e-8 2.693746204680000e-8 3.052422703620001e-8 3.458858643720000e-8
3.919413626050000e-8 4.441294923840001e-8 5.032669024990001e-8 5.702789966650000e-8
6.462144797209999e-8 7.322616761920000e-8 8.297673154850001e-8 9.402573461950002e-8
1.065461255090000e-7 1.207338720370000e-7 1.368110590500000e-7 1.550293685270000e-7
1.756740224850000e-7 1.990682578450000e-7 2.255784049060000e-7 2.556196099910000e-7
2.896624046249999e-7 3.282400535050000e-7 3.719569687480000e-7 4.214982035489999e-7
4.776402473159999e-7 5.412632595800000e-7 6.133649602460002e-7 6.950763492400000e-7
7.876796624240000e-7 8.926285409120000e-7 1.011571281360000e-6 1.146376861960000e-6
1.299164556480000e-6 1.472338103920000e-6 1.668624004560000e-6 1.891115081760000e-6
2.143320302470000e-6 2.429221802940000e-6 2.753338880030001e-6 3.120802069869999e-6
3.537437228220000e-6 4.009860469320000e-6 4.545589444710001e-6 5.153167863479999e-6
5.842310532400001e-6 6.624065523080001e-6 7.511008946879999e-6 8.517457801800001e-6
9.659726160100000e-6 1.095641445230000e-5 1.242874764120000e-5 1.410096451670000e-5
1.600077760940000e-5 1.815989985140000e-5 2.061467369460000e-5 2.340679747050000e-5
2.658419266340000e-5 3.020202273840000e-5 3.432390988470000e-5 3.902337854999999e-5
4.438559504930001e-5 5.050945042140000e-5 5.751009409869999e-5 6.552199387160000e-5
7.470268495410000e-5 8.523737040379999e-5 9.734458014510000e-5 1.112832154350000e-4
1.273612462770000e-4 1.459467192670000e-4 1.674815422290000e-4 1.924988366160000e-4
2.216451298380000e-4 2.557085310100000e-4 2.956550601120000e-4 3.426753360660000e-4
3.982449294060000e-4 4.642029684370001e-4 5.428546311760000e-4 6.371054559389999e-4
7.506377461770000e-4 8.881430513890001e-4 1.055628951320000e-3 1.260825236630000e-3
1.513720099780000e-3 1.827268990290000e-3 2.218327387370000e-3 2.708873241700000e-3
3.327595335910000e-3 4.111932391169999e-3 5.110648096509999e-3 6.387003884330000e-3
8.022536255610001e-3 1.012132578300000e-2 1.281444149680000e-2 1.626392895660000e-2
2.066522114120000e-2 2.624636201310000e-2 3.326175676940000e-2 4.197793698360000e-2
5.264900962179999e-2 6.548075148889999e-2 8.058488504260000e-2 9.792894635469999e-2
1.172909749970000e-1 1.382311948460000e-1 1.600915250850000e-1 1.820289425520000e-1
2.030794829760000e-1 2.222410686290000e-1 2.385585312740000e-1 2.511956962810000e-1
2.594873513890000e-1 2.629724448540000e-1 2.614153371380000e-1 2.548207986930000e-1
2.434427113530000e-1 2.277814697770000e-1 2.085632534460000e-1 1.866973694500000e-1
1.632127922560000e-1 1.391797177010000e-1 1.156251477680000e-1 9.345313808510001e-2
7.337981552870000e-2 5.589149428700000e-2 4.123063045770000e-2 2.941005141110000e-2
2.025120540330000e-2 1.343838304990000e-2 8.578886937640000e-3 5.259370427979999e-3
3.090779563250000e-3 1.737891011520000e-3 9.331569654739999e-4 4.775083743610001e-4
2.323620667040000e-4 1.072767912170000e-4 4.687278080760000e-5 1.932998252450000e-5
7.501368889449999e-6 2.730172618190001e-6 9.282208149340001e-7 2.933068708940000e-7
8.599324584060001e-8 2.329282777120000e-8 5.799222751310000e-9 1.319877255910000e-9
2.730119413630001e-10 5.100484159570001e-11 8.549395884220001e-12 1.276630848180000e-12
1.685360714390000e-13 1.951048284480000e-14 1.963237234920000e-15 1.700985634900000e-16
1.256589913320000e-17 7.889470258840001e-19 4.844437536670000e-20 2.474974741780001e-21
1.039625148320000e-22
</PP_RHOATOM>
</UPF>
